ITEM: TIMESTEP
10000
ITEM: NUMBER OF ATOMS
2400
ITEM: BOX BOUNDS pp pp pp
0.0000000000000000e+00 4.5100000000000000e+01
0.0000000000000000e+00 4.5200000000000000e+01
0.0000000000000000e+00 4.5300000000000000e+01
ITEM: ATOMS id type x y z vx vy vz 
1 1 36.5534 30.3231 35.2407 -0.00334412 -0.0064402 -0.000754788 
2 2 36.8003 28.9173 35.8483 0.00375053 -0.00171808 0.00303257 
3 2 36.9603 28.8063 37.4779 -0.00389578 -0.00552597 0.00116011 
4 2 36.5303 27.4534 38.079 0.00246868 0.00120154 -0.00112737 
5 2 35.8315 27.7397 39.4066 0.00569038 0.00451461 0.00664195 
6 2 35.1238 26.5926 40.1909 0.00294343 -0.00658113 0.000112861 
7 2 34.1151 25.6743 39.316 0.00302454 -4.45406e-05 -0.00622878 
8 2 32.9121 26.4126 38.7666 0.000462999 -0.00921016 0.000294168 
9 2 32.1909 25.8184 37.6125 0.000337547 -0.00265619 -0.0030988 
10 2 31.0625 26.6659 37.2442 0.00340661 -0.00592361 0.00404965 
11 2 30.5805 26.3563 35.8729 0.00493213 -0.00699198 0.00426367 
12 1 29.1961 26.8956 35.5487 -0.000573732 0.00319075 -0.00428327 
13 1 1.94056 43.3131 1.90365 0.00168633 -0.00327746 0.000559988 
14 2 2.0398 42.1255 0.975819 0.000539686 -0.000726167 -0.0016781 
15 2 2.95753 42.4624 44.8565 -0.00388892 0.000372241 0.00230367 
16 2 3.14619 41.3849 43.7892 -0.0096076 1.68265e-05 -0.00253672 
17 2 4.24885 41.7942 42.8625 0.00462878 0.00387368 -0.0034229 
18 2 4.5583 40.8017 41.6962 0.00404577 0.00171272 -0.00518538 
19 2 5.31377 41.4889 40.5319 0.002898 0.00266774 0.00780481 
20 2 6.83936 41.9475 40.5448 0.00977235 0.00564415 -0.00655951 
21 2 7.80752 40.7856 40.451 0.00346221 -0.00771624 0.00295298 
22 2 7.98239 40.0098 39.0765 0.00329476 -0.00250817 -0.00615316 
23 2 8.61703 38.6123 39.6226 -0.000360509 -0.00701103 -0.00362917 
24 1 9.63831 37.9604 38.6585 -0.00140698 -0.00299073 0.00161331 
25 1 23.9906 11.196 1.25747 -0.00594372 -0.00503054 0.00520771 
26 2 24.8344 9.99985 0.861861 -0.000508796 0.00653168 0.000767007 
27 2 24.3754 8.71368 1.56317 0.00481901 -0.00269852 -0.00148492 
28 2 24.6106 8.37271 2.94791 -0.0016148 0.0055392 0.0026041 
29 2 24.0455 7.02663 3.47111 -0.00757231 -0.00233877 -0.00382149 
30 2 24.2332 6.60554 4.8817 -0.00232382 -0.00166837 0.000199339 
31 2 25.6538 6.38315 5.32953 0.0024098 0.00378423 0.00573731 
32 2 26.4896 7.63836 5.81102 0.00637471 0.00127535 0.00239261 
33 2 27.9049 7.2918 5.83274 0.00471499 -0.0016519 0.00339993 
34 2 28.8591 8.42328 6.1781 -0.00127347 0.00265357 0.00616116 
35 2 30.28 7.87003 5.77901 -0.00356356 0.000197553 -0.00847282 
36 1 31.3355 8.74002 6.28806 -0.00516599 7.54869e-05 0.00772278 
37 1 18.4647 4.98913 8.73317 -0.00389733 0.000547727 0.00883206 
38 2 18.2888 3.48474 8.99344 0.00548571 0.00605605 0.00146126 
39 2 19.3247 2.95956 10.0459 0.00470247 -0.00471429 0.00252431 
40 2 19.1517 3.41925 11.5412 -0.00536959 0.0033035 0.00818201 
41 2 20.343 2.95317 12.6169 -0.000731099 -0.00668593 0.00881711 
42 2 21.8047 3.39344 12.3908 0.00697364 -0.00213601 0.00738595 
43 2 22.7909 2.88434 13.5154 -0.000788998 -0.00286849 0.0061138 
44 2 24.2087 3.4096 13.303 -0.0037384 0.00544638 0.0022953 
45 2 25.1263 2.44792 12.5738 -0.000336429 0.00406167 0.0081629 
46 2 25.0943 2.20629 11.0109 0.00301452 0.00338907 -0.00333796 
47 2 25.9821 1.09436 10.4099 -0.00564493 -0.00595483 0.00146973 
48 1 26.2338 44.8532 11.1793 -0.00415891 -0.00108213 0.00513578 
49 1 10.5524 33.9906 35.7751 0.00119591 0.00453942 0.00299778 
50 2 9.80138 32.6781 36.1066 0.000588507 -0.00292815 0.000356428 
51 2 8.74877 31.9952 35.1687 -0.00243395 -0.00466834 -0.00737458 
52 2 7.67649 32.9566 34.542 -0.00301339 0.00183402 0.00774794 
53 2 6.54606 32.3043 33.845 0.000642236 -0.00188835 0.00477786 
54 2 5.59445 33.3896 33.2638 0.000214051 -0.00309821 0.00215278 
55 2 4.29823 32.8015 32.6938 -0.00546724 -0.00210657 -0.00110256 
56 2 3.17425 33.8331 32.6365 -0.00542743 0.000595437 -0.0144996 
57 2 1.82306 33.1318 32.4687 -0.00316604 -0.00119689 0.00144996 
58 2 0.743506 34.2025 32.6924 -0.00451739 0.00565436 -0.00536003 
59 2 44.2363 33.8896 32.4513 -0.000952155 -0.00129826 0.00400656 
60 1 43.1593 34.9486 32.639 0.0007356 -0.0044804 -0.00393144 
61 1 8.61951 18.0939 32.1082 0.00088625 0.00517539 0.00212453 
62 2 7.6511 18.4341 33.2166 0.00214352 -0.000528991 -0.00137978 
63 2 6.87495 19.6719 32.8477 0.00534927 -0.00277785 -0.00260058 
64 2 5.91998 19.9368 34.0362 -0.00331425 -0.00133415 -0.00635133 
65 2 4.72771 20.8971 33.8778 -0.00909076 -5.29566e-05 0.000786212 
66 2 3.43255 20.3548 33.1072 -0.000402108 -0.00425217 -0.00445539 
67 2 2.22098 21.3989 32.9018 -0.0017001 0.00618245 0.00413861 
68 2 2.56949 22.7203 32.0749 0.000318061 0.00404365 -0.000492682 
69 2 1.41874 23.7714 31.8916 -0.00255138 -0.00150542 0.000603171 
70 2 1.94866 24.8284 30.9542 -0.00264201 0.00143019 0.00778045 
71 2 0.875989 25.8138 30.7758 -0.00147846 0.00305085 0.00377758 
72 1 1.48295 26.9673 29.9697 0.000729177 -0.00596967 -0.00506107 
73 1 37.6664 14.9004 44.5296 -0.0006447 0.00528182 0.00699575 
74 2 39.2037 14.5147 44.4217 0.000501227 0.0011983 -0.00560915 
75 2 39.2822 12.932 44.4149 0.000160951 0.00150723 -0.00340557 
76 2 40.6193 12.2172 43.9992 -0.00188527 -0.00275262 0.00119325 
77 2 40.4237 10.7195 43.8845 -0.00456488 -0.00279782 0.00133122 
78 2 41.8097 10.088 43.8653 -0.00310063 -0.00102014 -0.000893423 
79 2 42.0496 9.14992 42.7207 -0.00524028 -0.00635447 -0.000724635 
80 2 43.3806 8.45279 42.9628 -0.00405129 0.00393561 -0.000580181 
81 2 43.7982 7.36362 41.9218 -0.00111145 -0.000636428 0.00246308 
82 2 42.7004 6.36432 41.3671 0.00283365 0.00080133 0.00305141 
83 2 43.1133 4.92044 40.8999 -0.00717859 -0.00129616 0.00965796 
84 1 41.8876 4.01645 40.5324 -0.000393814 -0.0075353 0.001719 
85 1 35.4169 4.39836 11.0683 0.000158733 0.00154023 0.00228543 
86 2 34.8851 5.06937 9.77043 -0.0092994 0.00423951 0.000895642 
87 2 33.9746 4.12173 9.00967 0.00396875 0.0022107 -0.00354126 
88 2 32.4329 4.10988 9.23415 -0.00474926 -0.00328837 0.0060041 
89 2 31.5185 2.93234 8.61577 -0.00071869 -0.00626165 0.00264648 
90 2 29.9941 2.99373 8.68242 0.00102563 -0.00159032 -0.00479514 
91 2 29.1724 3.16937 9.98745 -0.0106582 0.00452924 -0.000654204 
92 2 29.1953 4.73028 10.6441 0.000854223 -0.000606236 -0.0018825 
93 2 28.1638 5.79752 9.97908 0.00385948 -0.00699726 -0.0072333 
94 2 28.1208 6.83515 11.0426 0.0141812 0.000269493 0.00133799 
95 2 27.0224 7.85571 10.8344 -0.000581869 0.00650154 -0.00125474 
96 1 26.7465 8.50299 12.1206 0.00176688 0.000787243 0.00438227 
97 1 11.0824 19.502 29.0921 -6.66492e-05 0.00102106 0.00018452 
98 2 10.0592 18.7789 28.1683 -0.00386713 0.00195462 -0.00238735 
99 2 8.78191 19.5594 28.1922 0.00175905 -1.02663e-05 0.000348302 
100 2 7.6611 18.9188 27.3984 0.00387844 -0.000858268 -0.00366283 
101 2 6.29422 19.6033 27.4772 -0.0010589 -0.00492046 -0.00121854 
102 2 5.5875 19.6186 28.9028 0.003107 -0.00250451 0.000541484 
103 2 4.27393 20.4074 29.1728 0.00927318 0.00126582 -0.0005569 
104 2 3.2487 20.4715 28.0856 -0.00437194 -0.00559705 0.00280459 
105 2 2.11008 20.9942 28.8978 -0.000284096 0.00113698 0.00442922 
106 2 0.926376 21.5197 28.1124 0.0028204 -0.00025143 -0.00216172 
107 2 44.8203 22.0743 28.9961 0.00329468 -0.00175152 0.0017801 
108 1 43.6386 22.5061 28.1231 0.00821047 5.95457e-05 0.0113269 
109 1 40.1259 3.75559 25.7516 0.00894611 -0.00126043 0.000354201 
110 2 39.8227 2.26094 25.6113 0.00625144 -0.000586112 0.000968539 
111 2 40.2469 1.52921 26.8916 0.00163527 -0.00152037 -0.00646976 
112 2 40.0667 44.966 26.8637 0.000868181 -0.00658218 -0.0100372 
113 2 38.6398 44.5621 26.6837 -0.00177784 0.00266215 -0.00330281 
114 2 38.398 43.0892 26.9421 0.00183763 0.0109501 0.00344772 
115 2 38.6823 42.638 28.3749 0.00425314 0.00145234 -0.00205049 
116 2 38.2493 41.1408 28.6807 -0.00107728 -0.0028704 0.000913306 
117 2 38.4697 40.5062 30.1802 -0.00412946 -0.00423453 0.00166314 
118 2 40.0082 40.5287 30.7233 -0.00586746 -0.00575227 -0.00165352 
119 2 39.9997 40.3033 32.2171 0.0124148 -0.00156867 -0.00020681 
120 1 41.3314 40.0402 32.7773 0.00693779 -0.00113944 -0.00316246 
121 1 32.3688 20.807 9.55853 0.00342338 0.00533631 0.00172491 
122 2 32.3807 21.2409 10.9985 -0.00113096 0.00163451 0.00118143 
123 2 33.67 21.9459 11.4496 0.00152574 -0.00647699 -0.00619953 
124 2 33.9101 21.5327 12.9134 0.00551513 0.00481355 0.0034538 
125 2 35.1904 22.0646 13.5516 -0.0011865 0.00614745 -0.000243225 
126 2 35.6259 23.4832 13.4378 -0.00152923 -0.00602676 0.0040683 
127 2 34.8228 24.5112 14.3 0.0047526 -0.00567092 -0.00220399 
128 2 35.5654 25.837 14.6994 -0.00050335 0.00301786 0.00189344 
129 2 36.3089 25.5308 16.0625 0.00759201 -0.000319722 -0.00479452 
130 2 37.1793 26.7129 16.7029 0.00184839 -0.000111438 0.00711222 
131 2 36.2915 27.8978 16.9918 0.00180385 -0.000119606 0.00525528 
132 1 37.0714 29.0184 17.6556 0.00417507 -0.00412784 0.00764507 
133 1 5.04711 9.04212 6.4613 0.00126489 -0.00407407 0.0112687 
134 2 6.18945 8.39617 5.68588 0.00458437 0.00316483 0.00505879 
135 2 7.56839 9.00211 5.53304 0.000283524 -0.00140977 -0.00158483 
136 2 7.82354 10.3558 4.94661 -0.00158982 -0.00127748 0.00249245 
137 2 9.18412 10.8892 5.25272 0.00101806 0.00188605 0.00312216 
138 2 9.35537 12.1594 4.38507 -0.00515492 0.00648611 0.00635339 
139 2 10.623 12.9303 4.78923 0.00122865 -0.00273153 0.00106338 
140 2 10.9885 13.9122 3.65086 -0.00613181 0.00309464 0.000284188 
141 2 11.8278 15.1989 3.80247 0.000833637 0.00126838 0.00433117 
142 2 13.1635 14.9773 4.43089 -0.000244491 -0.0022032 0.00134195 
143 2 13.7595 16.2706 4.97586 -0.00242265 0.000716889 0.0016834 
144 1 15.255 16.3273 5.29561 -0.0015332 0.00294289 0.000847917 
145 1 0.692492 2.09639 42.0946 0.00294091 0.00596932 -0.00150926 
146 2 1.52671 1.13602 41.2702 0.00733615 0.00650681 0.00277221 
147 2 0.861089 0.152167 40.3136 -0.00146504 -0.00051327 -0.00223815 
148 2 0.288 43.8927 40.6617 0.000192903 -0.000876757 -0.00330649 
149 2 44.4835 43.1949 39.4788 0.00348441 -0.0075208 -0.00102809 
150 2 0.258505 42.616 38.1365 0.00889776 0.00194843 0.000840395 
151 2 44.3755 41.9646 37.0967 0.00572762 -0.00135684 0.00468497 
152 2 0.292256 41.1187 36.1508 -0.00495442 -0.00333913 -0.00612059 
153 2 44.4877 40.361 35.0692 0.00099052 0.000588172 0.000381028 
154 2 0.287034 39.1725 34.5401 -0.0043449 -0.00257667 0.00350123 
155 2 1.55509 39.161 33.691 0.00508589 0.000214109 -0.0045734 
156 1 2.22284 37.9088 33.9558 -0.00095158 -0.00337051 -0.00449865 
157 1 31.7304 16.4348 9.78466 0.00523823 -0.00549708 0.00116282 
158 2 32.117 16.9022 11.1842 0.00273536 -0.000481305 -0.00199683 
159 2 31.6646 15.912 12.18 -0.00337817 0.00572879 0.00772209 
160 2 32.036 16.1963 13.684 0.000926273 -0.00476457 0.00240006 
161 2 31.2797 15.3375 14.7464 0.000524337 -0.000374131 -0.00514947 
162 2 32.4167 14.7208 15.6159 -6.7218e-05 -0.00406946 -0.00284967 
163 2 32.1991 13.5661 16.682 -0.00147227 0.00105702 -0.00136907 
164 2 30.99 13.828 17.6822 -0.001532 0.00463536 -0.00177213 
165 2 30.5649 12.5266 18.4693 -0.00324365 0.00440252 -0.0028487 
166 2 29.3836 12.5844 19.4417 -0.000811313 0.00311369 0.000434501 
167 2 28.1372 12.2342 18.5976 0.00373086 0.00360963 0.0047347 
168 1 26.7569 12.2119 19.167 -0.00341676 -0.00298732 6.8225e-07 
169 1 33.6154 44.1858 42.2779 -0.00433919 0.000470865 0.0063472 
170 2 33.4006 44.5906 43.7558 -0.00117036 -0.00700454 0.00805307 
171 2 34.4893 44.5021 44.7788 0.00542546 0.000648055 0.00185996 
172 2 35.3384 43.3357 0.176579 -0.000969137 0.00197005 -0.00256089 
173 2 36.0894 42.5725 44.0945 -0.00162167 0.00088768 0.00470672 
174 2 36.7213 41.3071 44.7791 0.00737981 -0.000507606 0.00484075 
175 2 37.5567 40.3462 43.9051 0.00663222 0.000535227 -0.005789 
176 2 37.9332 39.0223 44.5645 0.0101468 0.00632884 -0.0011717 
177 2 38.9447 37.9228 43.9275 0.00584275 0.00313891 0.00451909 
178 2 40.5289 38.0465 44.2824 0.00545718 -0.00100667 0.00373252 
179 2 40.9715 38.2331 0.738535 0.00428211 0.00341656 0.00566129 
180 1 42.2998 37.524 1.11198 0.000448349 -0.000281024 -0.00266446 
181 1 12.0585 44.0178 31.7123 0.000222188 -0.00234265 -0.00417352 
182 2 13.3331 44.0164 30.8695 -0.00177173 -0.00162205 0.00235421 
183 2 13.0894 44.2191 29.4078 -0.00324885 0.00495888 0.000402803 
184 2 14.3119 44.4571 28.4107 0.000101816 0.00236627 0.00426094 
185 2 15.3646 43.2971 28.089 -0.00341787 -0.00305619 -4.89412e-05 
186 2 16.3396 43.6551 26.9937 0.000331551 0.00177519 -0.00344258 
187 2 17.4449 42.5623 26.8043 -0.000336182 -0.00278303 -0.0032921 
188 2 17.016 41.0136 26.5287 0.00406489 -0.0051133 0.00337577 
189 2 18.3068 40.1504 26.0872 0.00476814 6.64052e-05 0.00584223 
190 2 18.0524 38.7468 25.5291 -2.99171e-05 0.000249214 -0.00181691 
191 2 17.3225 37.7625 26.3881 -0.000942951 -0.00263065 0.00209458 
192 1 17.4217 36.4249 25.7101 -0.00892146 -0.00171259 -0.00520787 
193 1 11.6715 17.7395 1.27903 -0.00466415 0.000654787 -0.000233023 
194 2 11.3267 19.2532 1.04524 -0.00350401 0.00357926 0.0015215 
195 2 10.5986 20.1452 2.06438 -0.00143127 0.00227639 -0.00085374 
196 2 10.9069 19.9931 3.58315 0.00096909 0.000942897 0.00266853 
197 2 10.1145 20.8202 4.64386 -0.00270983 -0.000450659 0.00146938 
198 2 10.5321 22.3093 4.5506 0.00207565 0.000935101 -0.00996126 
199 2 9.91633 23.2902 5.48058 0.00916703 -0.00258128 0.00497203 
200 2 11.0107 24.0249 6.14083 0.00478338 0.00420059 0.00311948 
201 2 10.5653 25.2996 6.80004 0.00178401 -0.000841065 0.000362239 
202 2 10.3896 26.4839 5.8686 0.00535809 0.00934144 0.00145401 
203 2 9.19181 26.6276 4.9333 0.00123347 0.00779993 0.00343878 
204 1 9.23921 27.9689 4.09029 0.000120189 -0.00070008 0.00829435 
205 1 12.6922 5.02869 41.4634 -0.000361098 -0.0015798 0.00681345 
206 2 11.4924 5.24286 42.3702 0.00293121 0.00606809 -0.00296108 
207 2 10.0874 4.78779 41.8605 -0.00103893 -0.00192842 -0.00133752 
208 2 9.3137 5.78614 40.9937 -0.00106818 0.00161393 0.00090332 
209 2 9.25263 7.23821 41.5798 0.0107915 0.0130788 -0.00160884 
210 2 8.74216 8.30537 40.5978 0.00434666 -0.00200297 -0.00369564 
211 2 9.04995 9.78734 41.0408 0.0014469 -0.00439301 0.000687772 
212 2 8.33206 10.7452 40.0713 0.000479012 -0.00599049 0.00335471 
213 2 8.14146 12.1721 40.5996 0.00340809 0.00414238 -0.00497791 
214 2 6.97756 13.0938 40.1552 -0.00143369 0.00500629 0.00332619 
215 2 6.53851 14.2216 41.0404 0.000406468 -0.00359466 -0.00307095 
216 1 7.40298 15.4803 41.4192 0.00472732 0.00127087 -0.00170104 
217 1 42.4454 29.6541 0.726943 0.00281161 0.000204378 0.00333575 
218 2 41.1323 29.6225 1.3113 -0.00396652 -0.000715785 0.00203475 
219 2 40.5105 28.3053 0.853346 0.00254003 -0.00768758 0.00440939 
220 2 40.7879 26.8278 1.31851 0.00297513 0.00116844 -0.00305981 
221 2 40.1813 25.4795 0.688763 0.0037057 0.0017041 0.00368598 
222 2 38.6716 25.4252 0.39326 0.000798474 0.00291463 -0.00500193 
223 2 37.9821 24.2218 44.6925 -0.00449089 0.00368754 0.000505614 
224 2 38.4325 23.6816 43.2659 -0.00245912 -0.00172602 0.000598108 
225 2 38.1288 24.4625 41.9296 -0.000953668 -0.00303505 -0.000562633 
226 2 38.9488 23.8974 40.839 -0.00367296 0.00299183 -0.00294835 
227 2 38.7351 24.404 39.4309 0.00165797 0.00318785 -0.0100151 
228 1 39.7138 23.8726 38.3127 -0.0106053 0.00287815 0.000574297 
229 1 0.493646 22.773 40.1372 -0.0047273 0.000587605 -0.0103966 
230 2 0.337458 21.5486 41.0308 0.00975811 -0.00830584 0.000920631 
231 2 1.09069 20.3161 40.6147 -8.79896e-06 -0.00795216 -0.0026282 
232 2 1.05769 19.1355 41.6411 0.00180246 0.000139511 -0.0112107 
233 2 1.80789 17.875 40.8284 -0.00247028 0.000396038 0.000157576 
234 2 1.7428 16.3837 41.4932 -0.000204866 0.00629538 -0.000292165 
235 2 2.4126 16.0081 42.8636 -8.35681e-05 -0.00634774 -1.02004e-06 
236 2 3.94889 16.5241 42.9711 0.00015966 -0.00212175 0.00193039 
237 2 4.43968 16.3065 44.4123 0.00267634 -0.000834998 -0.00347331 
238 2 5.78174 17.0042 44.6596 -0.00580461 -0.00676814 0.00671716 
239 2 6.44735 17.0393 1.053 0.0028259 -0.00532333 -0.00162965 
240 1 6.29496 15.6905 1.90465 0.00380483 -0.00330795 -0.00999189 
241 1 7.96457 25.9012 24.643 0.00428633 -0.00295335 7.16614e-05 
242 2 7.11711 24.6852 25.1269 0.000940137 0.0016219 -0.00577275 
243 2 6.34321 25.0901 26.399 0.0027703 -8.87498e-06 -0.00542821 
244 2 7.08142 25.4158 27.7287 -0.00488165 -0.00477287 0.00262116 
245 2 6.09847 25.7753 28.8088 -0.0043443 -0.000540669 -0.00249451 
246 2 6.64602 25.8412 30.208 -0.00213693 0.00103776 -0.000445362 
247 2 7.09855 24.5529 30.8923 0.00388761 0.00121966 0.00196287 
248 2 7.68571 24.9438 32.2555 0.00160312 0.00083967 2.21778e-05 
249 2 7.98308 23.7705 33.1358 -0.00589847 0.0019623 0.000325747 
250 2 8.90731 24.0058 34.2959 -0.00208528 0.00846063 0.00278389 
251 2 8.61899 22.9042 35.343 0.00160127 0.00437615 0.00541295 
252 1 9.54655 22.8475 36.6251 0.000414365 -0.000933443 0.00610539 
253 1 5.48879 43.983 35.9325 0.00679527 -0.00160375 0.00528769 
254 2 5.08617 44.2842 37.2594 0.00071795 -0.000580815 0.006411 
255 2 5.87456 0.545355 37.6123 -0.00219486 -0.00263255 0.00019128 
256 2 5.71494 1.2436 38.9866 -0.00129949 0.000302511 0.00473179 
257 2 6.56664 0.64065 40.0624 0.00740918 0.00614333 0.00948994 
258 2 6.3375 1.36693 41.3405 0.00588457 0.00522735 0.00660162 
259 2 6.89615 0.567883 42.5675 -0.00145988 0.000390793 -7.98827e-05 
260 2 7.3838 1.25938 43.8347 0.000328565 -0.00146263 0.0017991 
261 2 7.99749 0.52897 0.167528 0.000220919 0.00355615 -0.00976251 
262 2 8.53789 1.49595 1.24393 -0.00447549 0.00391087 0.00118029 
263 2 9.73109 2.37833 0.843797 -0.00145337 0.00025745 -0.00195159 
264 1 11.1008 1.81076 0.378631 0.000548028 -0.00210668 -0.00461344 
265 1 2.71772 33.3738 3.29253 -0.00165371 -0.00373274 0.00136945 
266 2 1.84445 32.7362 4.30585 -0.00675529 0.0104482 -0.00655664 
267 2 1.48768 33.5372 5.55932 -0.000350644 0.00498267 0.00374709 
268 2 0.292797 32.8229 6.45766 -0.00220143 -0.00549123 0.00162209 
269 2 43.979 32.4306 5.86632 -0.00241596 5.15112e-05 -0.00728562 
270 2 43.1185 33.3048 5.05278 0.0038982 0.00246275 0.00595268 
271 2 41.7341 32.8197 4.79667 -0.00277997 0.000493961 0.00516612 
272 2 40.6846 33.6728 3.98734 -0.00262899 -0.0056087 -0.0029377 
273 2 40.039 34.7405 4.69669 0.00245789 0.00345467 0.000118621 
274 2 40.9019 35.8634 5.27017 0.00176809 0.00142149 -0.0050759 
275 2 39.9152 36.6779 6.21751 -0.00150126 0.000682241 9.86661e-05 
276 1 40.4386 37.8772 7.22267 0.00657229 -0.00598417 -0.00390188 
277 1 0.92451 11.8895 37.4602 -0.0036556 0.00205168 -0.00269103 
278 2 44.587 12.1455 38.0411 0.00401343 0.00511453 0.000404681 
279 2 43.8721 10.8389 38.0436 -0.0033325 0.00552856 -0.00505188 
280 2 42.4988 10.5713 38.6042 0.00335732 0.00146747 0.00492843 
281 2 42.0439 9.18965 38.4111 0.010626 -0.00712025 0.00689108 
282 2 40.6348 9.24523 39.1052 0.00517829 0.00598632 -0.0041927 
283 2 39.6643 8.14046 38.8107 -0.00326262 0.000622441 -0.00242959 
284 2 38.3561 8.37125 39.626 0.00410281 -0.00103678 -0.00284854 
285 2 37.3442 7.22805 39.4305 -0.000805445 -0.00220272 0.00276436 
286 2 36.0721 7.04601 40.2161 0.000130068 0.000460506 0.00320005 
287 2 35.0883 8.1526 40.3337 -0.00417563 0.000880271 0.00387391 
288 1 34.4753 8.85438 39.0798 0.00905134 -0.00317507 -0.000588244 
289 1 7.93538 5.64117 10.8928 0.00156619 -0.00137369 -0.00607539 
290 2 6.93882 4.67785 10.2794 -0.000481814 0.00225011 -0.000256327 
291 2 7.53804 3.54859 9.51794 -0.00439016 -0.00225167 0.0010838 
292 2 8.36526 2.51394 10.4443 0.00132095 -0.00405467 -0.0107833 
293 2 9.24161 1.48411 9.80798 0.00236827 -0.0116798 0.00449206 
294 2 10.1464 0.77813 10.8104 -0.00318941 0.00228728 0.00781455 
295 2 11.2312 44.8449 10.2079 -0.00443273 0.00929234 0.00468379 
296 2 10.7194 43.5939 9.461 0.00438789 -0.00262343 -0.00208081 
297 2 11.5486 42.5266 8.63009 0.00048691 -0.00405726 -0.00284604 
298 2 10.8616 41.5104 7.76212 0.00395889 0.000964702 -0.00701622 
299 2 10.1372 40.3568 8.59679 -0.00218536 -0.0060107 -0.000857425 
300 1 9.73668 39.2054 7.66945 0.00157359 -0.00108782 -0.00409184 
301 1 12.6381 20.6957 36.3622 0.00281874 0.00108211 -0.0119213 
302 2 13.1588 21.0601 37.7725 -0.000110049 -0.00540622 -0.00126661 
303 2 12.0027 20.7416 38.7789 0.00404835 -0.00100909 -0.00396459 
304 2 12.4253 20.948 40.1634 -0.00128436 -0.000461749 0.00117354 
305 2 11.5776 20.7593 41.3795 -0.000613702 -0.00244437 0.00138895 
306 2 10.0947 21.1472 41.5035 -0.00126904 -0.000247886 -0.000852238 
307 2 9.73975 22.5868 41.265 0.00190201 0.00264804 -0.00358031 
308 2 8.29483 22.8156 41.7184 0.00570462 -0.00564736 -0.00586699 
309 2 7.6683 24.1819 41.4637 -0.00964747 0.00162072 0.00749002 
310 2 8.44526 25.4247 42.1234 0.000780999 0.00494543 0.000994057 
311 2 7.61846 26.6544 42.3453 0.00277195 0.00291435 -0.00875943 
312 1 8.39547 27.7435 43.0701 0.00101936 -0.00504929 -0.00730071 
313 1 26.1405 40.5125 36.0891 0.00523347 0.00435718 0.00209665 
314 2 27.2631 39.6056 36.7242 0.0101927 0.000520115 -0.0011127 
315 2 28.5453 40.2719 37.2466 0.0028851 -0.00185509 -0.00492928 
316 2 29.4236 39.1898 37.9117 -0.00272752 -0.00241542 -3.35088e-05 
317 2 30.8725 39.7486 38.0188 0.00110372 -3.06571e-05 -0.00461642 
318 2 31.7298 39.7634 36.7587 -0.00496047 0.000844435 -0.00290464 
319 2 32.3199 38.4458 36.3556 0.000774897 -0.00196684 0.000962851 
320 2 31.5422 37.2155 35.7886 0.0039202 0.000670739 -0.00385315 
321 2 32.3554 35.9671 35.4398 0.000694923 0.000836462 0.0030816 
322 2 33.2014 36.1486 34.1231 -0.00390171 -0.00254836 0.00115357 
323 2 34.052 34.9762 33.7919 -0.000393475 0.00222246 4.77247e-05 
324 1 35.1015 35.3038 32.7344 0.00173906 0.00482914 -0.000646547 
325 1 43.4293 16.9197 43.9228 -0.000495284 -0.00139921 -0.00232036 
326 2 43.1024 16.9367 42.4201 0.00608838 -0.00321396 -0.00244828 
327 2 41.514 17.2365 42.0523 -0.00181204 0.00121988 0.00136376 
328 2 41.1195 18.7658 42.2319 0.0111256 0.00475459 -0.00341106 
329 2 41.9443 19.9815 41.7064 -0.0105441 -0.00367017 0.00373281 
330 2 41.9303 21.3756 42.478 -0.00801814 0.00116122 -0.000891213 
331 2 42.5843 21.2817 43.8781 0.00148222 -0.00892105 0.00334388 
332 2 42.8297 22.6937 44.5506 -0.00585872 0.000955752 -0.00314079 
333 2 43.7621 23.7231 44.0213 0.00319399 0.00142971 -0.00457526 
334 2 44.0273 24.9564 44.8374 0.00401885 -0.00442342 0.00322609 
335 2 44.923 24.9135 1.00981 0.00746762 -0.00402473 0.00339567 
336 1 0.358491 26.3428 1.48958 -0.0011338 0.00608375 -0.00296508 
337 1 24.415 39.8955 4.41842 -0.00154671 0.00425934 0.00388735 
338 2 24.2147 40.7179 5.69275 0.00171264 -0.000892948 0.00478821 
339 2 23.3554 39.9207 6.71061 -0.00396391 0.00205704 -0.000834407 
340 2 23.6583 40.4139 8.12299 0.00212094 -0.0019215 0.000192562 
341 2 22.7517 39.8488 9.18141 -0.00041533 -0.00633036 -0.00376207 
342 2 23.2005 40.1357 10.5767 -0.00152771 0.00163149 -0.00297958 
343 2 22.2655 39.3313 11.4968 0.00174334 -0.00784663 -0.00591468 
344 2 22.7412 39.4652 12.9327 -0.000698149 -0.00323674 -0.00174849 
345 2 21.6938 38.7886 13.773 -0.00174478 0.00845875 -0.000379986 
346 2 22.1518 38.8363 15.2161 -0.00122056 0.00286672 0.00252408 
347 2 21.7436 37.6299 16.0607 -0.00543729 0.00240112 -1.18247e-05 
348 1 22.2244 37.8734 17.4858 0.00419501 0.00235985 -0.00189905 
349 1 21.1866 33.2472 30.7676 0.00707312 0.00478246 0.00126419 
350 2 20.1976 34.0695 29.9374 0.00411428 -0.00636976 -0.00441884 
351 2 20.3074 33.7992 28.3805 0.000961108 -0.00393519 -0.00455014 
352 2 21.4245 34.439 27.3823 -0.0024979 -0.00202775 0.00291778 
353 2 21.9238 35.9634 27.5011 0.0053778 7.4635e-05 0.00267055 
354 2 20.8166 37.0792 27.7949 0.00726993 0.00544171 -0.007134 
355 2 21.3179 38.4914 28.143 -0.00100819 0.00254644 0.00247705 
356 2 22.4563 39.2653 27.493 0.00569488 0.00580853 0.0113898 
357 2 23.9226 38.625 27.6457 -0.00204377 -0.00663158 0.00299351 
358 2 25.0267 39.7374 27.5493 -0.00507851 -0.00425357 0.00386556 
359 2 25.586 40.0155 26.1373 0.00750189 -0.00384309 0.00431008 
360 1 27.0761 40.5691 25.986 -0.00255934 0.00132761 -0.00613676 
361 1 1.073 4.364 25.3522 0.0073153 -0.012367 -0.00488804 
362 2 1.38255 5.08864 26.5832 0.00175791 0.00142243 0.00327822 
363 2 0.949666 4.22542 27.8258 -0.0102958 0.0031261 0.00202684 
364 2 1.48507 4.83442 29.1452 -0.00451079 0.00176861 0.00325597 
365 2 3.00671 4.92939 29.5599 -0.00109583 -0.00124503 0.00263207 
366 2 3.76645 3.55246 29.4118 0.00718396 -0.0041387 -0.00337103 
367 2 5.25082 3.44942 29.6562 -0.000284718 0.00304464 -0.00624761 
368 2 5.60358 2.01153 29.3073 -0.00425998 0.00432084 0.00316981 
369 2 7.09071 1.70953 29.4898 -0.00521546 0.0101119 -0.000587821 
370 2 7.58463 0.275979 29.1885 0.000988567 0.0058595 0.00278402 
371 2 9.15012 0.113328 29.0761 -0.00398179 0.00081666 0.00501765 
372 1 9.19203 43.6761 28.5874 0.00193349 0.00317829 0.00124472 
373 1 15.4351 10.5309 22.8763 0.0067582 0.000265837 0.00184584 
374 2 16.1504 9.22152 22.9117 1.30728e-05 -0.00108539 -0.00688384 
375 2 15.2627 8.07175 22.5418 -0.000562811 0.00232289 -0.00299455 
376 2 14.7869 7.86625 21.0916 -0.00467483 0.00178526 0.000420815 
377 2 13.364 7.25543 21.1281 -0.000365629 -0.00249524 -0.00263116 
378 2 12.9574 6.95356 19.6207 -0.00587331 0.00139939 -0.00540468 
379 2 11.4885 6.57568 19.3179 -0.00373979 -0.00707247 0.0010456 
380 2 10.8569 5.6622 18.2409 0.000535299 -0.00754376 -0.00806837 
381 2 11.8268 4.54123 17.7292 0.00591996 -0.00450535 0.00647593 
382 2 11.3891 4.20658 16.2656 0.00520829 -0.00247273 0.00610264 
383 2 12.1721 3.1208 15.548 -0.00591525 0.00188223 -0.0017774 
384 1 11.5014 2.52899 14.3478 -0.00390224 -0.00151287 -0.00702438 
385 1 25.4193 25.7156 29.1291 0.00373249 0.00278314 -0.00352379 
386 2 25.3206 26.9891 30.0185 -0.00137278 -0.00153741 -0.00510283 
387 2 26.6214 27.6446 29.8924 -0.00499133 -0.00189176 -0.00523391 
388 2 26.3222 29.0797 30.1924 0.00673074 -0.000849902 0.00449689 
389 2 27.5002 30.0157 29.8645 -0.00176711 -0.000901027 0.00148802 
390 2 27.275 31.4533 30.2291 -0.00154498 -0.00035075 -0.000532036 
391 2 28.3199 32.5371 29.7817 0.00233198 0.00447953 -0.000310403 
392 2 29.7671 32.3573 29.9876 -1.59635e-05 -0.00142537 -0.00270024 
393 2 30.2832 33.6835 29.5222 0.00563933 -0.00239337 -0.00100833 
394 2 31.7165 34.0869 29.5313 -0.00116766 0.00541581 0.000739053 
395 2 31.8635 35.2591 28.5721 -0.00415562 0.00740051 0.00307079 
396 1 33.324 35.6352 28.2713 -0.0028786 0.00810776 -0.00306128 
397 1 35.3904 32.7341 29.1302 -0.000417343 -0.00468054 -0.00373866 
398 2 36.031 32.5188 27.8275 -0.0045793 -0.00243734 -0.00117306 
399 2 36.075 33.5035 26.7754 -0.000849486 0.00434668 0.00480523 
400 2 36.7215 34.8289 27.1147 0.00463167 0.00301138 0.00265225 
401 2 36.6175 35.8853 26.1479 0.00701768 -0.000398328 -0.000951123 
402 2 37.2524 37.205 26.6922 -0.00152231 -0.00372947 -0.00790226 
403 2 36.7471 38.4409 25.9773 0.00304759 -0.00170251 0.0041912 
404 2 35.181 38.7363 26.1766 0.00012074 0.00443424 0.00229524 
405 2 34.5681 39.8903 25.4768 0.000887988 -0.00734672 -0.00521477 
406 2 33.1297 40.029 24.9685 -0.00168717 0.00101707 -0.000893294 
407 2 32.566 38.98 23.9715 0.000269577 0.00214903 -0.000453521 
408 1 31.1091 38.8938 23.7875 0.00342555 -0.00134458 0.0067244 
409 1 28.0581 26.7618 3.7422 0.00301351 -0.000119475 -0.00169797 
410 2 28.42 27.2003 2.34873 0.00419005 -0.00871355 -0.00678274 
411 2 27.6346 26.4138 1.2991 0.00259744 -0.00929598 -0.00158052 
412 2 28.3565 26.7567 44.9881 -0.000836656 -0.00723563 0.000706862 
413 2 27.5035 26.3372 43.802 -0.00518526 -0.00817907 0.00446092 
414 2 28.4832 26.4249 42.6134 3.39531e-06 0.00348995 0.00351164 
415 2 27.5039 26.6955 41.4254 0.00233066 -0.00058305 -0.0007591 
416 2 27.9138 27.2006 39.9788 -0.0031314 0.00099155 -0.000678283 
417 2 28.8624 28.3366 39.5791 0.00124365 -0.00607666 0.0025016 
418 2 28.8736 29.7043 40.2225 -0.00386792 -0.00529241 0.00120961 
419 2 30.089 30.5274 39.7324 -0.00287297 -0.00629974 0.00452239 
420 1 30.014 32.027 40.1226 -0.00103153 0.000805564 -0.00623658 
421 1 19.6014 14.189 2.2633 -0.00393076 0.00414568 -0.00105678 
422 2 19.6564 13.4191 3.58804 -0.00289177 0.0014173 -0.00207265 
423 2 18.4368 12.5487 3.67427 0.00362829 0.00246736 0.0055375 
424 2 18.2793 11.666 4.92643 -0.00503815 -0.000786782 -0.00212627 
425 2 19.074 10.2716 5.05151 0.00181108 0.00634523 0.00242183 
426 2 19.5511 9.86352 6.48124 -0.00232067 0.000105467 0.00130469 
427 2 20.6166 8.77308 6.48783 0.00302693 0.000732776 0.000770318 
428 2 21.039 8.38343 7.93616 -0.00477879 -0.00547579 -0.00217698 
429 2 22.1572 7.38217 7.83987 -0.000916822 -0.00321697 -0.00160956 
430 2 22.7803 6.86362 9.16682 0.00130941 -0.00743417 0.00183353 
431 2 24.0172 6.00372 8.97415 0.00580909 -0.00176423 0.00718016 
432 1 23.8197 4.66311 8.2118 0.00244859 -0.00169274 -0.00038478 
433 1 3.82524 19.7641 13.2232 -0.00671226 0.00373404 0.00243278 
434 2 2.79948 18.9543 13.9847 -0.00526285 0.0059441 -0.00336814 
435 2 1.58072 19.7447 14.4045 0.00387949 -0.000581625 0.00530425 
436 2 0.516158 19.071 15.3204 0.00628821 0.00108501 0.000987313 
437 2 0.11004 17.6758 14.8197 0.000547041 0.00358872 0.00805957 
438 2 44.2613 17.6024 13.5364 -0.00122985 0.000298818 -0.00192802 
439 2 43.3458 16.3575 13.5254 0.000843069 0.00592678 0.00451005 
440 2 42.5766 16.0362 12.223 0.000652542 -0.00554496 -0.00314146 
441 2 41.3367 15.1111 12.6878 0.00265612 0.00237982 -0.00124801 
442 2 40.9232 14.3215 11.437 0.00325555 0.00669447 -0.000654507 
443 2 39.5921 13.5341 11.461 0.00173365 0.00315935 -0.00612983 
444 1 38.2461 14.3539 11.2113 -0.00207407 0.00313607 -0.000232671 
445 1 3.78544 37.165 8.15083 -0.000463919 0.00492123 -0.000961109 
446 2 3.84718 36.0326 9.20021 0.00261725 0.000627693 -0.00625041 
447 2 3.86571 34.5118 8.74408 -0.00324766 0.00327694 -0.00330635 
448 2 4.94 33.9454 7.75165 0.00572728 0.00145329 -0.00333831 
449 2 5.35356 32.4838 8.00788 0.010368 -0.00314 0.00136971 
450 2 6.26248 31.9009 6.96056 0.000807079 -0.000286413 -0.00782701 
451 2 6.68942 30.4811 7.16544 -0.00548827 -0.00153525 0.000383047 
452 2 5.55314 29.499 7.48267 -0.00115964 -0.000506942 0.00454464 
453 2 6.15264 28.2107 8.05141 -0.00500599 0.00877944 -0.00425874 
454 2 6.70777 28.0282 9.56197 -0.00123494 0.000892568 -0.00265937 
455 2 7.95599 28.8404 9.89153 -0.00553913 0.00508152 -0.000958745 
456 1 8.46911 28.8394 11.355 0.00699862 0.00475769 -0.00158084 