LAMMPS data file. CGCMM style. atom_style full generated by VMD/TopoTools v1.2 on Thu Aug 28 16:24:34 BST 2014
9600 atoms                
46720 bonds                
0 angles                
0 dihedrals                
0 impropers                
2 atom types               
7 bond types               
0 angle types               
0 dihedral types               
0 improper types               
0 110.176 xlo xhi              
0 100.76 ylo yhi              
-30 252 zlo zhi              
                 
Pair Coeffs                
                 
1 0.1699 2.2 # Fe_s             
2 0.1699 2.96 # O_s             
                 
Bond Coeffs                
                 
1 130 1.95 # SB1-SB1             
2 130 2.1 # SB2-SB2             
3 130 2.6 # SB3-SB3             
4 130 2.75 # SB4-SB4             
5 130 2.85 # SB5-SB5             
6 130 2.9 # SB6-SB6             
7 130 2.95 # SB7-SB7             
                 
Masses                 
                 
1 55.85 # Fe_s              
2 15.999 # O_s              
                 
Atoms                 
                 
1	1	1	0.771	4.893	0	241.394	#	Fe_s
2	1	1	0.771	1.993	0	241.394	#	Fe_s
3	1	1	0.771	8.879	0	241.394	#	Fe_s
4	1	1	0.771	11.779	0	241.394	#	Fe_s
5	1	1	0.771	18.665001	0	241.394	#	Fe_s
6	1	1	0.771	15.765	0	241.394	#	Fe_s
7	1	1	0.771	22.650999	0	241.394	#	Fe_s
8	1	1	0.771	25.551001	0	241.394	#	Fe_s
9	1	1	0.771	32.437	0	241.394	#	Fe_s
10	1	1	0.771	29.537001	0	241.394	#	Fe_s
11	1	1	0.771	36.423	0	241.394	#	Fe_s
12	1	1	0.771	39.323002	0	241.394	#	Fe_s
13	1	1	0.771	46.209	0	241.394	#	Fe_s
14	1	1	0.771	43.308998	0	241.394	#	Fe_s
15	1	1	0.771	50.195	0	241.394	#	Fe_s
16	1	1	0.771	53.095001	0	241.394	#	Fe_s
17	1	1	0.771	59.980999	0	241.394	#	Fe_s
18	1	1	0.771	57.081001	0	241.394	#	Fe_s
19	1	1	0.771	63.966999	0	241.394	#	Fe_s
20	1	1	0.771	66.866997	0	241.394	#	Fe_s
21	1	1	0.771	73.752998	0	241.394	#	Fe_s
22	1	1	0.771	70.852997	0	241.394	#	Fe_s
23	1	1	0.771	77.738998	0	241.394	#	Fe_s
24	1	1	0.771	80.639	0	241.394	#	Fe_s
25	1	1	0.771	87.525002	0	241.394	#	Fe_s
26	1	1	0.771	84.625	0	241.394	#	Fe_s
27	1	1	0.771	91.511002	0	241.394	#	Fe_s
28	1	1	0.771	94.411003	0	241.394	#	Fe_s
29	1	1	0.771	101.296997	0	241.394	#	Fe_s
30	1	1	0.771	98.397003	0	241.394	#	Fe_s
31	1	1	0.771	105.282997	0	241.394	#	Fe_s
32	1	1	0.771	108.182999	0	241.394	#	Fe_s
33	1	1	0.771	4.893	5.038	241.394	#	Fe_s
34	1	1	0.771	1.993	5.038	241.394	#	Fe_s
35	1	1	0.771	8.879	5.038	241.394	#	Fe_s
36	1	1	0.771	11.779	5.038	241.394	#	Fe_s
37	1	1	0.771	18.665001	5.038	241.394	#	Fe_s
38	1	1	0.771	15.765	5.038	241.394	#	Fe_s
39	1	1	0.771	22.650999	5.038	241.394	#	Fe_s
40	1	1	0.771	25.551001	5.038	241.394	#	Fe_s
41	1	1	0.771	32.437	5.038	241.394	#	Fe_s
42	1	1	0.771	29.537001	5.038	241.394	#	Fe_s
43	1	1	0.771	36.423	5.038	241.394	#	Fe_s
44	1	1	0.771	39.323002	5.038	241.394	#	Fe_s
45	1	1	0.771	46.209	5.038	241.394	#	Fe_s
46	1	1	0.771	43.308998	5.038	241.394	#	Fe_s
47	1	1	0.771	50.195	5.038	241.394	#	Fe_s
48	1	1	0.771	53.095001	5.038	241.394	#	Fe_s
49	1	1	0.771	59.980999	5.038	241.394	#	Fe_s
50	1	1	0.771	57.081001	5.038	241.394	#	Fe_s
51	1	1	0.771	63.966999	5.038	241.394	#	Fe_s
52	1	1	0.771	66.866997	5.038	241.394	#	Fe_s
53	1	1	0.771	73.752998	5.038	241.394	#	Fe_s
54	1	1	0.771	70.852997	5.038	241.394	#	Fe_s
55	1	1	0.771	77.738998	5.038	241.394	#	Fe_s
56	1	1	0.771	80.639	5.038	241.394	#	Fe_s
57	1	1	0.771	87.525002	5.038	241.394	#	Fe_s
58	1	1	0.771	84.625	5.038	241.394	#	Fe_s
59	1	1	0.771	91.511002	5.038	241.394	#	Fe_s
60	1	1	0.771	94.411003	5.038	241.394	#	Fe_s
61	1	1	0.771	101.296997	5.038	241.394	#	Fe_s
62	1	1	0.771	98.397003	5.038	241.394	#	Fe_s
63	1	1	0.771	105.282997	5.038	241.394	#	Fe_s
64	1	1	0.771	108.182999	5.038	241.394	#	Fe_s
65	1	1	0.771	4.893	10.076	241.394	#	Fe_s
66	1	1	0.771	1.993	10.076	241.394	#	Fe_s
67	1	1	0.771	8.879	10.076	241.394	#	Fe_s
68	1	1	0.771	11.779	10.076	241.394	#	Fe_s
69	1	1	0.771	18.665001	10.076	241.394	#	Fe_s
70	1	1	0.771	15.765	10.076	241.394	#	Fe_s
71	1	1	0.771	22.650999	10.076	241.394	#	Fe_s
72	1	1	0.771	25.551001	10.076	241.394	#	Fe_s
73	1	1	0.771	32.437	10.076	241.394	#	Fe_s
74	1	1	0.771	29.537001	10.076	241.394	#	Fe_s
75	1	1	0.771	36.423	10.076	241.394	#	Fe_s
76	1	1	0.771	39.323002	10.076	241.394	#	Fe_s
77	1	1	0.771	46.209	10.076	241.394	#	Fe_s
78	1	1	0.771	43.308998	10.076	241.394	#	Fe_s
79	1	1	0.771	50.195	10.076	241.394	#	Fe_s
80	1	1	0.771	53.095001	10.076	241.394	#	Fe_s
81	1	1	0.771	59.980999	10.076	241.394	#	Fe_s
82	1	1	0.771	57.081001	10.076	241.394	#	Fe_s
83	1	1	0.771	63.966999	10.076	241.394	#	Fe_s
84	1	1	0.771	66.866997	10.076	241.394	#	Fe_s
85	1	1	0.771	73.752998	10.076	241.394	#	Fe_s
86	1	1	0.771	70.852997	10.076	241.394	#	Fe_s
87	1	1	0.771	77.738998	10.076	241.394	#	Fe_s
88	1	1	0.771	80.639	10.076	241.394	#	Fe_s
89	1	1	0.771	87.525002	10.076	241.394	#	Fe_s
90	1	1	0.771	84.625	10.076	241.394	#	Fe_s
91	1	1	0.771	91.511002	10.076	241.394	#	Fe_s
92	1	1	0.771	94.411003	10.076	241.394	#	Fe_s
93	1	1	0.771	101.296997	10.076	241.394	#	Fe_s
94	1	1	0.771	98.397003	10.076	241.394	#	Fe_s
95	1	1	0.771	105.282997	10.076	241.394	#	Fe_s
96	1	1	0.771	108.182999	10.076	241.394	#	Fe_s
97	1	1	0.771	4.893	15.114	241.394	#	Fe_s
98	1	1	0.771	1.993	15.114	241.394	#	Fe_s
99	1	1	0.771	8.879	15.114	241.394	#	Fe_s
100	1	1	0.771	11.779	15.114	241.394	#	Fe_s
101	1	1	0.771	18.665001	15.114	241.394	#	Fe_s
102	1	1	0.771	15.765	15.114	241.394	#	Fe_s
103	1	1	0.771	22.650999	15.114	241.394	#	Fe_s
104	1	1	0.771	25.551001	15.114	241.394	#	Fe_s
105	1	1	0.771	32.437	15.114	241.394	#	Fe_s
106	1	1	0.771	29.537001	15.114	241.394	#	Fe_s
107	1	1	0.771	36.423	15.114	241.394	#	Fe_s
108	1	1	0.771	39.323002	15.114	241.394	#	Fe_s
109	1	1	0.771	46.209	15.114	241.394	#	Fe_s
110	1	1	0.771	43.308998	15.114	241.394	#	Fe_s
111	1	1	0.771	50.195	15.114	241.394	#	Fe_s
112	1	1	0.771	53.095001	15.114	241.394	#	Fe_s
113	1	1	0.771	59.980999	15.114	241.394	#	Fe_s
114	1	1	0.771	57.081001	15.114	241.394	#	Fe_s
115	1	1	0.771	63.966999	15.114	241.394	#	Fe_s
116	1	1	0.771	66.866997	15.114	241.394	#	Fe_s
117	1	1	0.771	73.752998	15.114	241.394	#	Fe_s
118	1	1	0.771	70.852997	15.114	241.394	#	Fe_s
119	1	1	0.771	77.738998	15.114	241.394	#	Fe_s
120	1	1	0.771	80.639	15.114	241.394	#	Fe_s
121	1	1	0.771	87.525002	15.114	241.394	#	Fe_s
122	1	1	0.771	84.625	15.114	241.394	#	Fe_s
123	1	1	0.771	91.511002	15.114	241.394	#	Fe_s
124	1	1	0.771	94.411003	15.114	241.394	#	Fe_s
125	1	1	0.771	101.296997	15.114	241.394	#	Fe_s
126	1	1	0.771	98.397003	15.114	241.394	#	Fe_s
127	1	1	0.771	105.282997	15.114	241.394	#	Fe_s
128	1	1	0.771	108.182999	15.114	241.394	#	Fe_s
129	1	1	0.771	4.893	20.152	241.394	#	Fe_s
130	1	1	0.771	1.993	20.152	241.394	#	Fe_s
131	1	1	0.771	8.879	20.152	241.394	#	Fe_s
132	1	1	0.771	11.779	20.152	241.394	#	Fe_s
133	1	1	0.771	18.665001	20.152	241.394	#	Fe_s
134	1	1	0.771	15.765	20.152	241.394	#	Fe_s
135	1	1	0.771	22.650999	20.152	241.394	#	Fe_s
136	1	1	0.771	25.551001	20.152	241.394	#	Fe_s
137	1	1	0.771	32.437	20.152	241.394	#	Fe_s
138	1	1	0.771	29.537001	20.152	241.394	#	Fe_s
139	1	1	0.771	36.423	20.152	241.394	#	Fe_s
140	1	1	0.771	39.323002	20.152	241.394	#	Fe_s
141	1	1	0.771	46.209	20.152	241.394	#	Fe_s
142	1	1	0.771	43.308998	20.152	241.394	#	Fe_s
143	1	1	0.771	50.195	20.152	241.394	#	Fe_s
144	1	1	0.771	53.095001	20.152	241.394	#	Fe_s
145	1	1	0.771	59.980999	20.152	241.394	#	Fe_s
146	1	1	0.771	57.081001	20.152	241.394	#	Fe_s
147	1	1	0.771	63.966999	20.152	241.394	#	Fe_s
148	1	1	0.771	66.866997	20.152	241.394	#	Fe_s
149	1	1	0.771	73.752998	20.152	241.394	#	Fe_s
150	1	1	0.771	70.852997	20.152	241.394	#	Fe_s
151	1	1	0.771	77.738998	20.152	241.394	#	Fe_s
152	1	1	0.771	80.639	20.152	241.394	#	Fe_s
153	1	1	0.771	87.525002	20.152	241.394	#	Fe_s
154	1	1	0.771	84.625	20.152	241.394	#	Fe_s
155	1	1	0.771	91.511002	20.152	241.394	#	Fe_s
156	1	1	0.771	94.411003	20.152	241.394	#	Fe_s
157	1	1	0.771	101.296997	20.152	241.394	#	Fe_s
158	1	1	0.771	98.397003	20.152	241.394	#	Fe_s
159	1	1	0.771	105.282997	20.152	241.394	#	Fe_s
160	1	1	0.771	108.182999	20.152	241.394	#	Fe_s
161	1	1	0.771	4.893	25.190001	241.394	#	Fe_s
162	1	1	0.771	1.993	25.190001	241.394	#	Fe_s
163	1	1	0.771	8.879	25.190001	241.394	#	Fe_s
164	1	1	0.771	11.779	25.190001	241.394	#	Fe_s
165	1	1	0.771	18.665001	25.190001	241.394	#	Fe_s
166	1	1	0.771	15.765	25.190001	241.394	#	Fe_s
167	1	1	0.771	22.650999	25.190001	241.394	#	Fe_s
168	1	1	0.771	25.551001	25.190001	241.394	#	Fe_s
169	1	1	0.771	32.437	25.190001	241.394	#	Fe_s
170	1	1	0.771	29.537001	25.190001	241.394	#	Fe_s
171	1	1	0.771	36.423	25.190001	241.394	#	Fe_s
172	1	1	0.771	39.323002	25.190001	241.394	#	Fe_s
173	1	1	0.771	46.209	25.190001	241.394	#	Fe_s
174	1	1	0.771	43.308998	25.190001	241.394	#	Fe_s
175	1	1	0.771	50.195	25.190001	241.394	#	Fe_s
176	1	1	0.771	53.095001	25.190001	241.394	#	Fe_s
177	1	1	0.771	59.980999	25.190001	241.394	#	Fe_s
178	1	1	0.771	57.081001	25.190001	241.394	#	Fe_s
179	1	1	0.771	63.966999	25.190001	241.394	#	Fe_s
180	1	1	0.771	66.866997	25.190001	241.394	#	Fe_s
181	1	1	0.771	73.752998	25.190001	241.394	#	Fe_s
182	1	1	0.771	70.852997	25.190001	241.394	#	Fe_s
183	1	1	0.771	77.738998	25.190001	241.394	#	Fe_s
184	1	1	0.771	80.639	25.190001	241.394	#	Fe_s
185	1	1	0.771	87.525002	25.190001	241.394	#	Fe_s
186	1	1	0.771	84.625	25.190001	241.394	#	Fe_s
187	1	1	0.771	91.511002	25.190001	241.394	#	Fe_s
188	1	1	0.771	94.411003	25.190001	241.394	#	Fe_s
189	1	1	0.771	101.296997	25.190001	241.394	#	Fe_s
190	1	1	0.771	98.397003	25.190001	241.394	#	Fe_s
191	1	1	0.771	105.282997	25.190001	241.394	#	Fe_s
192	1	1	0.771	108.182999	25.190001	241.394	#	Fe_s
193	1	1	0.771	4.893	30.228001	241.394	#	Fe_s
194	1	1	0.771	1.993	30.228001	241.394	#	Fe_s
195	1	1	0.771	8.879	30.228001	241.394	#	Fe_s
196	1	1	0.771	11.779	30.228001	241.394	#	Fe_s
197	1	1	0.771	18.665001	30.228001	241.394	#	Fe_s
198	1	1	0.771	15.765	30.228001	241.394	#	Fe_s
199	1	1	0.771	22.650999	30.228001	241.394	#	Fe_s
200	1	1	0.771	25.551001	30.228001	241.394	#	Fe_s
201	1	1	0.771	32.437	30.228001	241.394	#	Fe_s
202	1	1	0.771	29.537001	30.228001	241.394	#	Fe_s
203	1	1	0.771	36.423	30.228001	241.394	#	Fe_s
204	1	1	0.771	39.323002	30.228001	241.394	#	Fe_s
205	1	1	0.771	46.209	30.228001	241.394	#	Fe_s
206	1	1	0.771	43.308998	30.228001	241.394	#	Fe_s
207	1	1	0.771	50.195	30.228001	241.394	#	Fe_s
208	1	1	0.771	53.095001	30.228001	241.394	#	Fe_s
209	1	1	0.771	59.980999	30.228001	241.394	#	Fe_s
210	1	1	0.771	57.081001	30.228001	241.394	#	Fe_s
211	1	1	0.771	63.966999	30.228001	241.394	#	Fe_s
212	1	1	0.771	66.866997	30.228001	241.394	#	Fe_s
213	1	1	0.771	73.752998	30.228001	241.394	#	Fe_s
214	1	1	0.771	70.852997	30.228001	241.394	#	Fe_s
215	1	1	0.771	77.738998	30.228001	241.394	#	Fe_s
216	1	1	0.771	80.639	30.228001	241.394	#	Fe_s
217	1	1	0.771	87.525002	30.228001	241.394	#	Fe_s
218	1	1	0.771	84.625	30.228001	241.394	#	Fe_s
219	1	1	0.771	91.511002	30.228001	241.394	#	Fe_s
220	1	1	0.771	94.411003	30.228001	241.394	#	Fe_s
221	1	1	0.771	101.296997	30.228001	241.394	#	Fe_s
222	1	1	0.771	98.397003	30.228001	241.394	#	Fe_s
223	1	1	0.771	105.282997	30.228001	241.394	#	Fe_s
224	1	1	0.771	108.182999	30.228001	241.394	#	Fe_s
225	1	1	0.771	4.893	35.265999	241.394	#	Fe_s
226	1	1	0.771	1.993	35.265999	241.394	#	Fe_s
227	1	1	0.771	8.879	35.265999	241.394	#	Fe_s
228	1	1	0.771	11.779	35.265999	241.394	#	Fe_s
229	1	1	0.771	18.665001	35.265999	241.394	#	Fe_s
230	1	1	0.771	15.765	35.265999	241.394	#	Fe_s
231	1	1	0.771	22.650999	35.265999	241.394	#	Fe_s
232	1	1	0.771	25.551001	35.265999	241.394	#	Fe_s
233	1	1	0.771	32.437	35.265999	241.394	#	Fe_s
234	1	1	0.771	29.537001	35.265999	241.394	#	Fe_s
235	1	1	0.771	36.423	35.265999	241.394	#	Fe_s
236	1	1	0.771	39.323002	35.265999	241.394	#	Fe_s
237	1	1	0.771	46.209	35.265999	241.394	#	Fe_s
238	1	1	0.771	43.308998	35.265999	241.394	#	Fe_s
239	1	1	0.771	50.195	35.265999	241.394	#	Fe_s
240	1	1	0.771	53.095001	35.265999	241.394	#	Fe_s
241	1	1	0.771	59.980999	35.265999	241.394	#	Fe_s
242	1	1	0.771	57.081001	35.265999	241.394	#	Fe_s
243	1	1	0.771	63.966999	35.265999	241.394	#	Fe_s
244	1	1	0.771	66.866997	35.265999	241.394	#	Fe_s
245	1	1	0.771	73.752998	35.265999	241.394	#	Fe_s
246	1	1	0.771	70.852997	35.265999	241.394	#	Fe_s
247	1	1	0.771	77.738998	35.265999	241.394	#	Fe_s
248	1	1	0.771	80.639	35.265999	241.394	#	Fe_s
249	1	1	0.771	87.525002	35.265999	241.394	#	Fe_s
250	1	1	0.771	84.625	35.265999	241.394	#	Fe_s
251	1	1	0.771	91.511002	35.265999	241.394	#	Fe_s
252	1	1	0.771	94.411003	35.265999	241.394	#	Fe_s
253	1	1	0.771	101.296997	35.265999	241.394	#	Fe_s
254	1	1	0.771	98.397003	35.265999	241.394	#	Fe_s
255	1	1	0.771	105.282997	35.265999	241.394	#	Fe_s
256	1	1	0.771	108.182999	35.265999	241.394	#	Fe_s
257	1	1	0.771	4.893	40.304001	241.394	#	Fe_s
258	1	1	0.771	1.993	40.304001	241.394	#	Fe_s
259	1	1	0.771	8.879	40.304001	241.394	#	Fe_s
260	1	1	0.771	11.779	40.304001	241.394	#	Fe_s
261	1	1	0.771	18.665001	40.304001	241.394	#	Fe_s
262	1	1	0.771	15.765	40.304001	241.394	#	Fe_s
263	1	1	0.771	22.650999	40.304001	241.394	#	Fe_s
264	1	1	0.771	25.551001	40.304001	241.394	#	Fe_s
265	1	1	0.771	32.437	40.304001	241.394	#	Fe_s
266	1	1	0.771	29.537001	40.304001	241.394	#	Fe_s
267	1	1	0.771	36.423	40.304001	241.394	#	Fe_s
268	1	1	0.771	39.323002	40.304001	241.394	#	Fe_s
269	1	1	0.771	46.209	40.304001	241.394	#	Fe_s
270	1	1	0.771	43.308998	40.304001	241.394	#	Fe_s
271	1	1	0.771	50.195	40.304001	241.394	#	Fe_s
272	1	1	0.771	53.095001	40.304001	241.394	#	Fe_s
273	1	1	0.771	59.980999	40.304001	241.394	#	Fe_s
274	1	1	0.771	57.081001	40.304001	241.394	#	Fe_s
275	1	1	0.771	63.966999	40.304001	241.394	#	Fe_s
276	1	1	0.771	66.866997	40.304001	241.394	#	Fe_s
277	1	1	0.771	73.752998	40.304001	241.394	#	Fe_s
278	1	1	0.771	70.852997	40.304001	241.394	#	Fe_s
279	1	1	0.771	77.738998	40.304001	241.394	#	Fe_s
280	1	1	0.771	80.639	40.304001	241.394	#	Fe_s
281	1	1	0.771	87.525002	40.304001	241.394	#	Fe_s
282	1	1	0.771	84.625	40.304001	241.394	#	Fe_s
283	1	1	0.771	91.511002	40.304001	241.394	#	Fe_s
284	1	1	0.771	94.411003	40.304001	241.394	#	Fe_s
285	1	1	0.771	101.296997	40.304001	241.394	#	Fe_s
286	1	1	0.771	98.397003	40.304001	241.394	#	Fe_s
287	1	1	0.771	105.282997	40.304001	241.394	#	Fe_s
288	1	1	0.771	108.182999	40.304001	241.394	#	Fe_s
289	1	1	0.771	4.893	45.341999	241.394	#	Fe_s
290	1	1	0.771	1.993	45.341999	241.394	#	Fe_s
291	1	1	0.771	8.879	45.341999	241.394	#	Fe_s
292	1	1	0.771	11.779	45.341999	241.394	#	Fe_s
293	1	1	0.771	18.665001	45.341999	241.394	#	Fe_s
294	1	1	0.771	15.765	45.341999	241.394	#	Fe_s
295	1	1	0.771	22.650999	45.341999	241.394	#	Fe_s
296	1	1	0.771	25.551001	45.341999	241.394	#	Fe_s
297	1	1	0.771	32.437	45.341999	241.394	#	Fe_s
298	1	1	0.771	29.537001	45.341999	241.394	#	Fe_s
299	1	1	0.771	36.423	45.341999	241.394	#	Fe_s
300	1	1	0.771	39.323002	45.341999	241.394	#	Fe_s
301	1	1	0.771	46.209	45.341999	241.394	#	Fe_s
302	1	1	0.771	43.308998	45.341999	241.394	#	Fe_s
303	1	1	0.771	50.195	45.341999	241.394	#	Fe_s
304	1	1	0.771	53.095001	45.341999	241.394	#	Fe_s
305	1	1	0.771	59.980999	45.341999	241.394	#	Fe_s
306	1	1	0.771	57.081001	45.341999	241.394	#	Fe_s
307	1	1	0.771	63.966999	45.341999	241.394	#	Fe_s
308	1	1	0.771	66.866997	45.341999	241.394	#	Fe_s
309	1	1	0.771	73.752998	45.341999	241.394	#	Fe_s
310	1	1	0.771	70.852997	45.341999	241.394	#	Fe_s
311	1	1	0.771	77.738998	45.341999	241.394	#	Fe_s
312	1	1	0.771	80.639	45.341999	241.394	#	Fe_s
313	1	1	0.771	87.525002	45.341999	241.394	#	Fe_s
314	1	1	0.771	84.625	45.341999	241.394	#	Fe_s
315	1	1	0.771	91.511002	45.341999	241.394	#	Fe_s
316	1	1	0.771	94.411003	45.341999	241.394	#	Fe_s
317	1	1	0.771	101.296997	45.341999	241.394	#	Fe_s
318	1	1	0.771	98.397003	45.341999	241.394	#	Fe_s
319	1	1	0.771	105.282997	45.341999	241.394	#	Fe_s
320	1	1	0.771	108.182999	45.341999	241.394	#	Fe_s
321	1	1	0.771	4.893	50.380001	241.394	#	Fe_s
322	1	1	0.771	1.993	50.380001	241.394	#	Fe_s
323	1	1	0.771	8.879	50.380001	241.394	#	Fe_s
324	1	1	0.771	11.779	50.380001	241.394	#	Fe_s
325	1	1	0.771	18.665001	50.380001	241.394	#	Fe_s
326	1	1	0.771	15.765	50.380001	241.394	#	Fe_s
327	1	1	0.771	22.650999	50.380001	241.394	#	Fe_s
328	1	1	0.771	25.551001	50.380001	241.394	#	Fe_s
329	1	1	0.771	32.437	50.380001	241.394	#	Fe_s
330	1	1	0.771	29.537001	50.380001	241.394	#	Fe_s
331	1	1	0.771	36.423	50.380001	241.394	#	Fe_s
332	1	1	0.771	39.323002	50.380001	241.394	#	Fe_s
333	1	1	0.771	46.209	50.380001	241.394	#	Fe_s
334	1	1	0.771	43.308998	50.380001	241.394	#	Fe_s
335	1	1	0.771	50.195	50.380001	241.394	#	Fe_s
336	1	1	0.771	53.095001	50.380001	241.394	#	Fe_s
337	1	1	0.771	59.980999	50.380001	241.394	#	Fe_s
338	1	1	0.771	57.081001	50.380001	241.394	#	Fe_s
339	1	1	0.771	63.966999	50.380001	241.394	#	Fe_s
340	1	1	0.771	66.866997	50.380001	241.394	#	Fe_s
341	1	1	0.771	73.752998	50.380001	241.394	#	Fe_s
342	1	1	0.771	70.852997	50.380001	241.394	#	Fe_s
343	1	1	0.771	77.738998	50.380001	241.394	#	Fe_s
344	1	1	0.771	80.639	50.380001	241.394	#	Fe_s
345	1	1	0.771	87.525002	50.380001	241.394	#	Fe_s
346	1	1	0.771	84.625	50.380001	241.394	#	Fe_s
347	1	1	0.771	91.511002	50.380001	241.394	#	Fe_s
348	1	1	0.771	94.411003	50.380001	241.394	#	Fe_s
349	1	1	0.771	101.296997	50.380001	241.394	#	Fe_s
350	1	1	0.771	98.397003	50.380001	241.394	#	Fe_s
351	1	1	0.771	105.282997	50.380001	241.394	#	Fe_s
352	1	1	0.771	108.182999	50.380001	241.394	#	Fe_s
353	1	1	0.771	4.893	55.417999	241.394	#	Fe_s
354	1	1	0.771	1.993	55.417999	241.394	#	Fe_s
355	1	1	0.771	8.879	55.417999	241.394	#	Fe_s
356	1	1	0.771	11.779	55.417999	241.394	#	Fe_s
357	1	1	0.771	18.665001	55.417999	241.394	#	Fe_s
358	1	1	0.771	15.765	55.417999	241.394	#	Fe_s
359	1	1	0.771	22.650999	55.417999	241.394	#	Fe_s
360	1	1	0.771	25.551001	55.417999	241.394	#	Fe_s
361	1	1	0.771	32.437	55.417999	241.394	#	Fe_s
362	1	1	0.771	29.537001	55.417999	241.394	#	Fe_s
363	1	1	0.771	36.423	55.417999	241.394	#	Fe_s
364	1	1	0.771	39.323002	55.417999	241.394	#	Fe_s
365	1	1	0.771	46.209	55.417999	241.394	#	Fe_s
366	1	1	0.771	43.308998	55.417999	241.394	#	Fe_s
367	1	1	0.771	50.195	55.417999	241.394	#	Fe_s
368	1	1	0.771	53.095001	55.417999	241.394	#	Fe_s
369	1	1	0.771	59.980999	55.417999	241.394	#	Fe_s
370	1	1	0.771	57.081001	55.417999	241.394	#	Fe_s
371	1	1	0.771	63.966999	55.417999	241.394	#	Fe_s
372	1	1	0.771	66.866997	55.417999	241.394	#	Fe_s
373	1	1	0.771	73.752998	55.417999	241.394	#	Fe_s
374	1	1	0.771	70.852997	55.417999	241.394	#	Fe_s
375	1	1	0.771	77.738998	55.417999	241.394	#	Fe_s
376	1	1	0.771	80.639	55.417999	241.394	#	Fe_s
377	1	1	0.771	87.525002	55.417999	241.394	#	Fe_s
378	1	1	0.771	84.625	55.417999	241.394	#	Fe_s
379	1	1	0.771	91.511002	55.417999	241.394	#	Fe_s
380	1	1	0.771	94.411003	55.417999	241.394	#	Fe_s
381	1	1	0.771	101.296997	55.417999	241.394	#	Fe_s
382	1	1	0.771	98.397003	55.417999	241.394	#	Fe_s
383	1	1	0.771	105.282997	55.417999	241.394	#	Fe_s
384	1	1	0.771	108.182999	55.417999	241.394	#	Fe_s
385	1	1	0.771	4.893	60.456001	241.394	#	Fe_s
386	1	1	0.771	1.993	60.456001	241.394	#	Fe_s
387	1	1	0.771	8.879	60.456001	241.394	#	Fe_s
388	1	1	0.771	11.779	60.456001	241.394	#	Fe_s
389	1	1	0.771	18.665001	60.456001	241.394	#	Fe_s
390	1	1	0.771	15.765	60.456001	241.394	#	Fe_s
391	1	1	0.771	22.650999	60.456001	241.394	#	Fe_s
392	1	1	0.771	25.551001	60.456001	241.394	#	Fe_s
393	1	1	0.771	32.437	60.456001	241.394	#	Fe_s
394	1	1	0.771	29.537001	60.456001	241.394	#	Fe_s
395	1	1	0.771	36.423	60.456001	241.394	#	Fe_s
396	1	1	0.771	39.323002	60.456001	241.394	#	Fe_s
397	1	1	0.771	46.209	60.456001	241.394	#	Fe_s
398	1	1	0.771	43.308998	60.456001	241.394	#	Fe_s
399	1	1	0.771	50.195	60.456001	241.394	#	Fe_s
400	1	1	0.771	53.095001	60.456001	241.394	#	Fe_s
401	1	1	0.771	59.980999	60.456001	241.394	#	Fe_s
402	1	1	0.771	57.081001	60.456001	241.394	#	Fe_s
403	1	1	0.771	63.966999	60.456001	241.394	#	Fe_s
404	1	1	0.771	66.866997	60.456001	241.394	#	Fe_s
405	1	1	0.771	73.752998	60.456001	241.394	#	Fe_s
406	1	1	0.771	70.852997	60.456001	241.394	#	Fe_s
407	1	1	0.771	77.738998	60.456001	241.394	#	Fe_s
408	1	1	0.771	80.639	60.456001	241.394	#	Fe_s
409	1	1	0.771	87.525002	60.456001	241.394	#	Fe_s
410	1	1	0.771	84.625	60.456001	241.394	#	Fe_s
411	1	1	0.771	91.511002	60.456001	241.394	#	Fe_s
412	1	1	0.771	94.411003	60.456001	241.394	#	Fe_s
413	1	1	0.771	101.296997	60.456001	241.394	#	Fe_s
414	1	1	0.771	98.397003	60.456001	241.394	#	Fe_s
415	1	1	0.771	105.282997	60.456001	241.394	#	Fe_s
416	1	1	0.771	108.182999	60.456001	241.394	#	Fe_s
417	1	1	0.771	4.893	65.494003	241.394	#	Fe_s
418	1	1	0.771	1.993	65.494003	241.394	#	Fe_s
419	1	1	0.771	8.879	65.494003	241.394	#	Fe_s
420	1	1	0.771	11.779	65.494003	241.394	#	Fe_s
421	1	1	0.771	18.665001	65.494003	241.394	#	Fe_s
422	1	1	0.771	15.765	65.494003	241.394	#	Fe_s
423	1	1	0.771	22.650999	65.494003	241.394	#	Fe_s
424	1	1	0.771	25.551001	65.494003	241.394	#	Fe_s
425	1	1	0.771	32.437	65.494003	241.394	#	Fe_s
426	1	1	0.771	29.537001	65.494003	241.394	#	Fe_s
427	1	1	0.771	36.423	65.494003	241.394	#	Fe_s
428	1	1	0.771	39.323002	65.494003	241.394	#	Fe_s
429	1	1	0.771	46.209	65.494003	241.394	#	Fe_s
430	1	1	0.771	43.308998	65.494003	241.394	#	Fe_s
431	1	1	0.771	50.195	65.494003	241.394	#	Fe_s
432	1	1	0.771	53.095001	65.494003	241.394	#	Fe_s
433	1	1	0.771	59.980999	65.494003	241.394	#	Fe_s
434	1	1	0.771	57.081001	65.494003	241.394	#	Fe_s
435	1	1	0.771	63.966999	65.494003	241.394	#	Fe_s
436	1	1	0.771	66.866997	65.494003	241.394	#	Fe_s
437	1	1	0.771	73.752998	65.494003	241.394	#	Fe_s
438	1	1	0.771	70.852997	65.494003	241.394	#	Fe_s
439	1	1	0.771	77.738998	65.494003	241.394	#	Fe_s
440	1	1	0.771	80.639	65.494003	241.394	#	Fe_s
441	1	1	0.771	87.525002	65.494003	241.394	#	Fe_s
442	1	1	0.771	84.625	65.494003	241.394	#	Fe_s
443	1	1	0.771	91.511002	65.494003	241.394	#	Fe_s
444	1	1	0.771	94.411003	65.494003	241.394	#	Fe_s
445	1	1	0.771	101.296997	65.494003	241.394	#	Fe_s
446	1	1	0.771	98.397003	65.494003	241.394	#	Fe_s
447	1	1	0.771	105.282997	65.494003	241.394	#	Fe_s
448	1	1	0.771	108.182999	65.494003	241.394	#	Fe_s
449	1	1	0.771	4.893	70.531998	241.394	#	Fe_s
450	1	1	0.771	1.993	70.531998	241.394	#	Fe_s
451	1	1	0.771	8.879	70.531998	241.394	#	Fe_s
452	1	1	0.771	11.779	70.531998	241.394	#	Fe_s
453	1	1	0.771	18.665001	70.531998	241.394	#	Fe_s
454	1	1	0.771	15.765	70.531998	241.394	#	Fe_s
455	1	1	0.771	22.650999	70.531998	241.394	#	Fe_s
456	1	1	0.771	25.551001	70.531998	241.394	#	Fe_s
457	1	1	0.771	32.437	70.531998	241.394	#	Fe_s
458	1	1	0.771	29.537001	70.531998	241.394	#	Fe_s
459	1	1	0.771	36.423	70.531998	241.394	#	Fe_s
460	1	1	0.771	39.323002	70.531998	241.394	#	Fe_s
461	1	1	0.771	46.209	70.531998	241.394	#	Fe_s
462	1	1	0.771	43.308998	70.531998	241.394	#	Fe_s
463	1	1	0.771	50.195	70.531998	241.394	#	Fe_s
464	1	1	0.771	53.095001	70.531998	241.394	#	Fe_s
465	1	1	0.771	59.980999	70.531998	241.394	#	Fe_s
466	1	1	0.771	57.081001	70.531998	241.394	#	Fe_s
467	1	1	0.771	63.966999	70.531998	241.394	#	Fe_s
468	1	1	0.771	66.866997	70.531998	241.394	#	Fe_s
469	1	1	0.771	73.752998	70.531998	241.394	#	Fe_s
470	1	1	0.771	70.852997	70.531998	241.394	#	Fe_s
471	1	1	0.771	77.738998	70.531998	241.394	#	Fe_s
472	1	1	0.771	80.639	70.531998	241.394	#	Fe_s
473	1	1	0.771	87.525002	70.531998	241.394	#	Fe_s
474	1	1	0.771	84.625	70.531998	241.394	#	Fe_s
475	1	1	0.771	91.511002	70.531998	241.394	#	Fe_s
476	1	1	0.771	94.411003	70.531998	241.394	#	Fe_s
477	1	1	0.771	101.296997	70.531998	241.394	#	Fe_s
478	1	1	0.771	98.397003	70.531998	241.394	#	Fe_s
479	1	1	0.771	105.282997	70.531998	241.394	#	Fe_s
480	1	1	0.771	108.182999	70.531998	241.394	#	Fe_s
481	1	1	0.771	4.893	75.57	241.394	#	Fe_s
482	1	1	0.771	1.993	75.57	241.394	#	Fe_s
483	1	1	0.771	8.879	75.57	241.394	#	Fe_s
484	1	1	0.771	11.779	75.57	241.394	#	Fe_s
485	1	1	0.771	18.665001	75.57	241.394	#	Fe_s
486	1	1	0.771	15.765	75.57	241.394	#	Fe_s
487	1	1	0.771	22.650999	75.57	241.394	#	Fe_s
488	1	1	0.771	25.551001	75.57	241.394	#	Fe_s
489	1	1	0.771	32.437	75.57	241.394	#	Fe_s
490	1	1	0.771	29.537001	75.57	241.394	#	Fe_s
491	1	1	0.771	36.423	75.57	241.394	#	Fe_s
492	1	1	0.771	39.323002	75.57	241.394	#	Fe_s
493	1	1	0.771	46.209	75.57	241.394	#	Fe_s
494	1	1	0.771	43.308998	75.57	241.394	#	Fe_s
495	1	1	0.771	50.195	75.57	241.394	#	Fe_s
496	1	1	0.771	53.095001	75.57	241.394	#	Fe_s
497	1	1	0.771	59.980999	75.57	241.394	#	Fe_s
498	1	1	0.771	57.081001	75.57	241.394	#	Fe_s
499	1	1	0.771	63.966999	75.57	241.394	#	Fe_s
500	1	1	0.771	66.866997	75.57	241.394	#	Fe_s
501	1	1	0.771	73.752998	75.57	241.394	#	Fe_s
502	1	1	0.771	70.852997	75.57	241.394	#	Fe_s
503	1	1	0.771	77.738998	75.57	241.394	#	Fe_s
504	1	1	0.771	80.639	75.57	241.394	#	Fe_s
505	1	1	0.771	87.525002	75.57	241.394	#	Fe_s
506	1	1	0.771	84.625	75.57	241.394	#	Fe_s
507	1	1	0.771	91.511002	75.57	241.394	#	Fe_s
508	1	1	0.771	94.411003	75.57	241.394	#	Fe_s
509	1	1	0.771	101.296997	75.57	241.394	#	Fe_s
510	1	1	0.771	98.397003	75.57	241.394	#	Fe_s
511	1	1	0.771	105.282997	75.57	241.394	#	Fe_s
512	1	1	0.771	108.182999	75.57	241.394	#	Fe_s
513	1	1	0.771	4.893	80.608002	241.394	#	Fe_s
514	1	1	0.771	1.993	80.608002	241.394	#	Fe_s
515	1	1	0.771	8.879	80.608002	241.394	#	Fe_s
516	1	1	0.771	11.779	80.608002	241.394	#	Fe_s
517	1	1	0.771	18.665001	80.608002	241.394	#	Fe_s
518	1	1	0.771	15.765	80.608002	241.394	#	Fe_s
519	1	1	0.771	22.650999	80.608002	241.394	#	Fe_s
520	1	1	0.771	25.551001	80.608002	241.394	#	Fe_s
521	1	1	0.771	32.437	80.608002	241.394	#	Fe_s
522	1	1	0.771	29.537001	80.608002	241.394	#	Fe_s
523	1	1	0.771	36.423	80.608002	241.394	#	Fe_s
524	1	1	0.771	39.323002	80.608002	241.394	#	Fe_s
525	1	1	0.771	46.209	80.608002	241.394	#	Fe_s
526	1	1	0.771	43.308998	80.608002	241.394	#	Fe_s
527	1	1	0.771	50.195	80.608002	241.394	#	Fe_s
528	1	1	0.771	53.095001	80.608002	241.394	#	Fe_s
529	1	1	0.771	59.980999	80.608002	241.394	#	Fe_s
530	1	1	0.771	57.081001	80.608002	241.394	#	Fe_s
531	1	1	0.771	63.966999	80.608002	241.394	#	Fe_s
532	1	1	0.771	66.866997	80.608002	241.394	#	Fe_s
533	1	1	0.771	73.752998	80.608002	241.394	#	Fe_s
534	1	1	0.771	70.852997	80.608002	241.394	#	Fe_s
535	1	1	0.771	77.738998	80.608002	241.394	#	Fe_s
536	1	1	0.771	80.639	80.608002	241.394	#	Fe_s
537	1	1	0.771	87.525002	80.608002	241.394	#	Fe_s
538	1	1	0.771	84.625	80.608002	241.394	#	Fe_s
539	1	1	0.771	91.511002	80.608002	241.394	#	Fe_s
540	1	1	0.771	94.411003	80.608002	241.394	#	Fe_s
541	1	1	0.771	101.296997	80.608002	241.394	#	Fe_s
542	1	1	0.771	98.397003	80.608002	241.394	#	Fe_s
543	1	1	0.771	105.282997	80.608002	241.394	#	Fe_s
544	1	1	0.771	108.182999	80.608002	241.394	#	Fe_s
545	1	1	0.771	4.893	85.646004	241.394	#	Fe_s
546	1	1	0.771	1.993	85.646004	241.394	#	Fe_s
547	1	1	0.771	8.879	85.646004	241.394	#	Fe_s
548	1	1	0.771	11.779	85.646004	241.394	#	Fe_s
549	1	1	0.771	18.665001	85.646004	241.394	#	Fe_s
550	1	1	0.771	15.765	85.646004	241.394	#	Fe_s
551	1	1	0.771	22.650999	85.646004	241.394	#	Fe_s
552	1	1	0.771	25.551001	85.646004	241.394	#	Fe_s
553	1	1	0.771	32.437	85.646004	241.394	#	Fe_s
554	1	1	0.771	29.537001	85.646004	241.394	#	Fe_s
555	1	1	0.771	36.423	85.646004	241.394	#	Fe_s
556	1	1	0.771	39.323002	85.646004	241.394	#	Fe_s
557	1	1	0.771	46.209	85.646004	241.394	#	Fe_s
558	1	1	0.771	43.308998	85.646004	241.394	#	Fe_s
559	1	1	0.771	50.195	85.646004	241.394	#	Fe_s
560	1	1	0.771	53.095001	85.646004	241.394	#	Fe_s
561	1	1	0.771	59.980999	85.646004	241.394	#	Fe_s
562	1	1	0.771	57.081001	85.646004	241.394	#	Fe_s
563	1	1	0.771	63.966999	85.646004	241.394	#	Fe_s
564	1	1	0.771	66.866997	85.646004	241.394	#	Fe_s
565	1	1	0.771	73.752998	85.646004	241.394	#	Fe_s
566	1	1	0.771	70.852997	85.646004	241.394	#	Fe_s
567	1	1	0.771	77.738998	85.646004	241.394	#	Fe_s
568	1	1	0.771	80.639	85.646004	241.394	#	Fe_s
569	1	1	0.771	87.525002	85.646004	241.394	#	Fe_s
570	1	1	0.771	84.625	85.646004	241.394	#	Fe_s
571	1	1	0.771	91.511002	85.646004	241.394	#	Fe_s
572	1	1	0.771	94.411003	85.646004	241.394	#	Fe_s
573	1	1	0.771	101.296997	85.646004	241.394	#	Fe_s
574	1	1	0.771	98.397003	85.646004	241.394	#	Fe_s
575	1	1	0.771	105.282997	85.646004	241.394	#	Fe_s
576	1	1	0.771	108.182999	85.646004	241.394	#	Fe_s
577	1	1	0.771	4.893	90.683998	241.394	#	Fe_s
578	1	1	0.771	1.993	90.683998	241.394	#	Fe_s
579	1	1	0.771	8.879	90.683998	241.394	#	Fe_s
580	1	1	0.771	11.779	90.683998	241.394	#	Fe_s
581	1	1	0.771	18.665001	90.683998	241.394	#	Fe_s
582	1	1	0.771	15.765	90.683998	241.394	#	Fe_s
583	1	1	0.771	22.650999	90.683998	241.394	#	Fe_s
584	1	1	0.771	25.551001	90.683998	241.394	#	Fe_s
585	1	1	0.771	32.437	90.683998	241.394	#	Fe_s
586	1	1	0.771	29.537001	90.683998	241.394	#	Fe_s
587	1	1	0.771	36.423	90.683998	241.394	#	Fe_s
588	1	1	0.771	39.323002	90.683998	241.394	#	Fe_s
589	1	1	0.771	46.209	90.683998	241.394	#	Fe_s
590	1	1	0.771	43.308998	90.683998	241.394	#	Fe_s
591	1	1	0.771	50.195	90.683998	241.394	#	Fe_s
592	1	1	0.771	53.095001	90.683998	241.394	#	Fe_s
593	1	1	0.771	59.980999	90.683998	241.394	#	Fe_s
594	1	1	0.771	57.081001	90.683998	241.394	#	Fe_s
595	1	1	0.771	63.966999	90.683998	241.394	#	Fe_s
596	1	1	0.771	66.866997	90.683998	241.394	#	Fe_s
597	1	1	0.771	73.752998	90.683998	241.394	#	Fe_s
598	1	1	0.771	70.852997	90.683998	241.394	#	Fe_s
599	1	1	0.771	77.738998	90.683998	241.394	#	Fe_s
600	1	1	0.771	80.639	90.683998	241.394	#	Fe_s
601	1	1	0.771	87.525002	90.683998	241.394	#	Fe_s
602	1	1	0.771	84.625	90.683998	241.394	#	Fe_s
603	1	1	0.771	91.511002	90.683998	241.394	#	Fe_s
604	1	1	0.771	94.411003	90.683998	241.394	#	Fe_s
605	1	1	0.771	101.296997	90.683998	241.394	#	Fe_s
606	1	1	0.771	98.397003	90.683998	241.394	#	Fe_s
607	1	1	0.771	105.282997	90.683998	241.394	#	Fe_s
608	1	1	0.771	108.182999	90.683998	241.394	#	Fe_s
609	1	1	0.771	4.893	95.722	241.394	#	Fe_s
610	1	1	0.771	1.993	95.722	241.394	#	Fe_s
611	1	1	0.771	8.879	95.722	241.394	#	Fe_s
612	1	1	0.771	11.779	95.722	241.394	#	Fe_s
613	1	1	0.771	18.665001	95.722	241.394	#	Fe_s
614	1	1	0.771	15.765	95.722	241.394	#	Fe_s
615	1	1	0.771	22.650999	95.722	241.394	#	Fe_s
616	1	1	0.771	25.551001	95.722	241.394	#	Fe_s
617	1	1	0.771	32.437	95.722	241.394	#	Fe_s
618	1	1	0.771	29.537001	95.722	241.394	#	Fe_s
619	1	1	0.771	36.423	95.722	241.394	#	Fe_s
620	1	1	0.771	39.323002	95.722	241.394	#	Fe_s
621	1	1	0.771	46.209	95.722	241.394	#	Fe_s
622	1	1	0.771	43.308998	95.722	241.394	#	Fe_s