LAMMPS data file. CGCMM style. atom_style full generated by VMD/TopoTools v1.7 on Wed Mar 16 16:45:21 GMT 2022
 2400 atoms
 2200 bonds
 2000 angles
 1800 dihedrals
 0 impropers
 2 atom types
 2 bond types
 2 angle types
 2 dihedral types
 0 improper types
 0.00000 45.00000  xlo xhi
 0.00000 45.00000  ylo yhi
 0.00000 45.00000  zlo zhi

 Pair Coeffs

1 0.175 3.905 # 1  SCP 10 
2 0.118 3.905 # 2  SCS 13

 Bond Coeffs

1 130.00 1.526 # 1  SCP-SCS 6-2
2 130.00 1.526 # 2  SCS-SCS 2-2

 Angle Coeffs

1 31.500 112.40 # 1  SCP-SCS-SCS 6-2-2
2 31.500 112.40 # 2  SCS-SCS-SCS 2-2-2

 Dihedral Coeffs

1 -3.400  1.250  3.100 0.0 # 1  SCP-SCS-SCS-SCS 6-2-2-2
2 -3.400  1.250  3.100 0.0 # 2  SCS-SCS-SCS-SCS 2-2-2-2

 Masses

 1 15.035000 # SCP
 2 14.027000 # SCS

 Atoms # full

1 1 1 0.000000 36.114258 28.328382 34.113575 # SCP 
2 1 2 0.000000 35.896053 29.610477 34.527874 # SCS 
3 1 2 0.000000 34.458206 29.486589 35.030617 # SCS 
4 1 2 0.000000 34.315151 30.761887 35.415199 # SCS 
5 1 2 0.000000 33.039604 30.629356 35.855312 # SCS 
6 1 2 0.000000 33.181263 32.002151 36.159294 # SCS 
7 1 2 0.000000 31.959957 32.047100 36.625351 # SCS 
8 1 2 0.000000 32.099304 33.431099 36.933102 # SCS 
9 1 2 0.000000 30.734179 33.388382 37.429890 # SCS 
10 1 2 0.000000 30.714155 34.744671 37.789734 # SCS 
11 1 2 0.000000 29.402361 34.821781 38.297806 # SCS 
12 1 1 0.000000 29.353027 36.165119 38.665195 # SCP 
13 1 1 0.000000 2.273480 42.246761 42.374413 # SCP 
14 1 2 0.000000 3.306199 42.069187 41.499783 # SCS 
15 1 2 0.000000 3.646306 40.606461 41.783085 # SCS 
16 1 2 0.000000 4.651237 40.504875 40.903000 # SCS 
17 1 2 0.000000 4.935889 39.206486 41.170284 # SCS 
18 1 2 0.000000 5.928506 39.397038 40.182644 # SCS 
19 1 2 0.000000 6.330653 38.159721 40.317345 # SCS 
20 1 2 0.000000 7.332417 38.348309 39.322113 # SCS 
21 1 2 0.000000 7.711809 36.962112 39.538242 # SCS 
22 1 2 0.000000 8.740728 36.988098 38.584274 # SCS 
23 1 2 0.000000 9.194418 35.660095 38.708618 # SCS 
24 1 1 0.000000 10.222403 35.655903 37.767773 # SCP 
25 1 1 0.000000 21.096708 10.559104 14.582822 # SCP 
26 1 2 0.000000 22.068918 9.896165 13.891198 # SCS 
27 1 2 0.000000 23.309784 10.610168 14.425948 # SCS 
28 1 2 0.000000 24.209145 9.917775 13.714264 # SCS 
29 1 2 0.000000 25.296309 10.564601 14.202093 # SCS 
30 1 2 0.000000 25.993925 9.687570 13.341172 # SCS 
31 1 2 0.000000 27.138414 10.205001 13.706180 # SCS 
32 1 2 0.000000 27.844898 9.322359 12.839346 # SCS 
33 1 2 0.000000 29.068146 9.955834 13.302560 # SCS 
34 1 2 0.000000 29.903740 9.160619 12.503299 # SCS 
35 1 2 0.000000 31.150400 9.699293 12.878220 # SCS 
36 1 1 0.000000 32.005013 8.924809 12.096060 # SCP 
37 1 1 0.000000 10.948305 10.356378 17.385475 # SCP 
38 1 2 0.000000 12.151909 10.953758 17.145687 # SCS 
39 1 2 0.000000 13.093477 9.793876 17.467592 # SCS 
40 1 2 0.000000 14.237050 10.443985 17.213919 # SCS 
41 1 2 0.000000 15.053887 9.401575 17.504509 # SCS 
42 1 2 0.000000 16.070507 10.324739 17.170912 # SCS 
43 1 2 0.000000 16.992729 9.428817 17.411013 # SCS 
44 1 2 0.000000 18.020163 10.356894 17.075401 # SCS 
45 1 2 0.000000 18.975187 9.300202 17.364397 # SCS 
46 1 2 0.000000 20.095585 10.091411 17.067570 # SCS 
47 1 2 0.000000 21.109646 9.146252 17.319065 # SCS 
48 1 1 0.000000 22.240736 9.907614 17.031105 # SCP 
49 1 1 0.000000 19.555510 28.907326 31.769730 # SCP 
50 1 2 0.000000 18.450607 29.694059 31.922260 # SCS 
51 1 2 0.000000 17.492323 28.996977 30.957237 # SCS 
52 1 2 0.000000 16.447290 29.811035 31.157162 # SCS 
53 1 2 0.000000 15.613864 29.177114 30.295866 # SCS 
54 1 2 0.000000 14.704775 30.179268 30.703644 # SCS 
55 1 2 0.000000 13.780041 29.690201 29.918470 # SCS 
56 1 2 0.000000 12.861000 30.699057 30.327314 # SCS 
57 1 2 0.000000 11.895931 30.088615 29.428320 # SCS 
58 1 2 0.000000 10.880987 31.010618 29.726990 # SCS 
59 1 2 0.000000 9.866471 30.505098 28.890266 # SCS 
60 1 1 0.000000 8.839678 31.405733 29.166874 # SCP 
61 1 1 0.000000 38.922100 16.759972 29.268156 # SCP 
62 1 2 0.000000 39.859180 17.202555 30.156427 # SCS 
63 1 2 0.000000 39.230419 18.534134 30.565155 # SCS 
64 1 2 0.000000 40.189827 18.904667 31.423639 # SCS 
65 1 2 0.000000 39.614079 20.081758 31.771856 # SCS 
66 1 2 0.000000 40.755905 20.202110 32.595745 # SCS 
67 1 2 0.000000 40.341026 21.360920 33.038303 # SCS 
68 1 2 0.000000 41.490891 21.485521 33.870090 # SCS 
69 1 2 0.000000 40.953377 22.763601 34.305729 # SCS 
70 1 2 0.000000 42.022457 23.033211 35.173939 # SCS 
71 1 2 0.000000 41.599728 24.283207 35.667599 # SCS 
72 1 1 0.000000 42.647709 24.578032 36.537525 # SCP 
73 1 1 0.000000 37.064560 20.921665 42.568707 # SCP 
74 1 2 0.000000 36.433937 19.981100 41.806686 # SCS 
75 1 2 0.000000 37.627811 19.110378 41.416790 # SCS 
76 1 2 0.000000 36.943069 18.223564 40.682323 # SCS 
77 1 2 0.000000 38.016304 17.465191 40.348663 # SCS 
78 1 2 0.000000 37.049629 16.705456 39.651970 # SCS 
79 1 2 0.000000 37.969990 15.872534 39.239658 # SCS 
80 1 2 0.000000 36.998119 15.104310 38.536179 # SCS 
81 1 2 0.000000 38.084866 14.231072 38.125538 # SCS 
82 1 2 0.000000 37.254047 13.375028 37.386395 # SCS 
83 1 2 0.000000 38.224602 12.462478 36.927952 # SCS 
84 1 1 0.000000 37.424625 11.595157 36.186501 # SCP 
85 1 1 0.000000 33.032108 7.491419 19.654793 # SCP 
86 1 2 0.000000 32.197903 8.542634 19.903934 # SCS 
87 1 2 0.000000 30.962717 8.092638 19.124626 # SCS 
88 1 2 0.000000 30.199663 9.155950 19.410757 # SCS 
89 1 2 0.000000 29.115152 8.737276 18.713022 # SCS 
90 1 2 0.000000 28.560411 9.952487 19.174068 # SCS 
91 1 2 0.000000 27.436581 9.699498 18.554543 # SCS 
92 1 2 0.000000 26.874184 10.923797 19.017555 # SCS 
93 1 2 0.000000 25.664225 10.561017 18.298822 # SCS 
94 1 2 0.000000 24.971872 11.723411 18.671509 # SCS 
95 1 2 0.000000 23.750439 11.476493 18.014221 # SCS 
96 1 1 0.000000 23.038088 12.620738 18.368084 # SCP 
97 1 1 0.000000 8.318318 13.960211 35.435047 # SCP 
98 1 2 0.000000 8.502797 13.896457 34.084148 # SCS 
99 1 2 0.000000 7.053197 13.745267 33.624470 # SCS 
100 1 2 0.000000 7.309312 13.689837 32.310665 # SCS 
101 1 2 0.000000 6.016303 13.556421 31.925159 # SCS 
102 1 2 0.000000 6.582146 13.528633 30.630522 # SCS 
103 1 2 0.000000 5.397548 13.395505 30.092173 # SCS 
104 1 2 0.000000 5.964604 13.367116 28.785566 # SCS 
105 1 2 0.000000 4.611606 13.221230 28.275370 # SCS 
106 1 2 0.000000 5.013647 13.176520 26.931580 # SCS 
107 1 2 0.000000 3.750244 13.032621 26.324947 # SCS 
108 1 1 0.000000 4.119491 12.985165 24.982052 # SCP 
109 1 1 0.000000 31.822824 40.083889 31.587273 # SCP 
110 1 2 0.000000 32.262852 38.919289 32.146835 # SCS 
111 1 2 0.000000 33.617554 39.377975 32.685249 # SCS 
112 1 2 0.000000 33.984383 38.201996 33.211803 # SCS 
113 1 2 0.000000 35.182091 38.630371 33.681129 # SCS 
114 1 2 0.000000 35.293819 37.294338 34.127865 # SCS 
115 1 2 0.000000 36.471569 37.541466 34.640362 # SCS 
116 1 2 0.000000 36.587532 36.195354 35.092152 # SCS 
117 1 2 0.000000 37.887218 36.559776 35.630859 # SCS 
118 1 2 0.000000 38.150814 35.277767 36.137188 # SCS 
119 1 2 0.000000 39.421021 35.515846 36.698246 # SCS 
120 1 1 0.000000 39.710354 34.253082 37.211731 # SCP 
121 1 1 0.000000 38.716217 15.380744 2.539185 # SCP 
122 1 2 0.000000 39.286610 15.796753 3.707350 # SCS 
123 1 2 0.000000 38.192932 15.393808 4.695784 # SCS 
124 1 2 0.000000 38.812981 15.826003 5.801904 # SCS 
125 1 2 0.000000 37.829941 15.460243 6.661057 # SCS 
126 1 2 0.000000 38.707851 15.998996 7.628557 # SCS 
127 1 2 0.000000 37.863892 15.711816 8.585674 # SCS 
128 1 2 0.000000 38.746494 16.254103 9.563688 # SCS 
129 1 2 0.000000 37.750534 15.899004 10.560760 # SCS 
130 1 2 0.000000 38.504005 16.391504 11.637389 # SCS 
131 1 2 0.000000 37.613834 16.093624 12.687988 # SCS 
132 1 1 0.000000 38.339111 16.574080 13.776609 # SCP 
133 1 1 0.000000 6.268809 9.119096 4.656151 # SCP 
134 1 2 0.000000 7.395177 9.878410 4.789425 # SCS 
135 1 2 0.000000 7.932030 9.328510 6.110372 # SCS 
136 1 2 0.000000 9.019684 10.107962 6.175289 # SCS 
137 1 2 0.000000 9.477763 9.605476 7.348302 # SCS 
138 1 2 0.000000 10.517714 10.541090 7.147887 # SCS 
139 1 2 0.000000 11.094346 10.171294 8.262141 # SCS 
140 1 2 0.000000 12.144320 11.113410 8.063263 # SCS 
141 1 2 0.000000 12.714191 10.639843 9.313530 # SCS 
142 1 2 0.000000 13.812439 11.511955 9.261785 # SCS 
143 1 2 0.000000 14.454953 11.133442 10.457109 # SCS 
144 1 1 0.000000 15.555776 11.987583 10.432827 # SCP 
145 1 1 0.000000 41.437099 43.999992 39.533974 # SCP 
146 1 2 0.000000 40.651646 43.246052 38.710773 # SCS 
147 1 2 0.000000 41.645248 42.957111 37.586155 # SCS 
148 1 2 0.000000 40.817413 42.225513 36.828392 # SCS 
149 1 2 0.000000 41.715149 41.981541 35.842068 # SCS 
150 1 2 0.000000 40.638050 41.267338 35.270393 # SCS 
151 1 2 0.000000 41.373936 40.939930 34.239815 # SCS 
152 1 2 0.000000 40.290230 40.219036 33.660610 # SCS 
153 1 2 0.000000 41.179680 39.903812 32.555302 # SCS 
154 1 2 0.000000 40.216160 39.158527 31.858458 # SCS 
155 1 2 0.000000 40.985817 38.791126 30.737057 # SCS 
156 1 1 0.000000 40.050064 38.045635 30.022520 # SCP 
157 1 1 0.000000 28.288103 15.151707 20.506491 # SCP 
158 1 2 0.000000 28.102978 13.845356 20.156918 # SCS 
159 1 2 0.000000 27.121084 13.415033 21.246052 # SCS 
160 1 2 0.000000 26.987642 12.143834 20.844805 # SCS 
161 1 2 0.000000 26.117212 11.783671 21.819956 # SCS 
162 1 2 0.000000 26.176178 10.528074 21.174173 # SCS 
163 1 2 0.000000 25.337986 10.019287 22.039845 # SCS 
164 1 2 0.000000 25.395056 8.752120 21.391300 # SCS 
165 1 2 0.000000 24.460735 8.272103 22.395700 # SCS 
166 1 2 0.000000 24.409365 6.970575 21.873405 # SCS 
167 1 2 0.000000 23.508270 6.396583 22.791805 # SCS 
168 1 1 0.000000 23.437166 5.096230 22.295835 # SCP 
169 1 1 0.000000 35.555546 42.320133 38.340641 # SCP 
170 1 2 0.000000 35.852367 41.081490 37.850037 # SCS 
171 1 2 0.000000 34.854313 40.236061 38.640377 # SCS 
172 1 2 0.000000 35.198715 39.052937 38.114693 # SCS 
173 1 2 0.000000 34.305523 38.322250 38.826439 # SCS 
174 1 2 0.000000 34.872707 37.244251 38.110020 # SCS 
175 1 2 0.000000 34.076706 36.397964 38.710846 # SCS 
176 1 2 0.000000 34.646214 35.308872 37.990341 # SCS 
177 1 2 0.000000 33.724442 34.442268 38.705547 # SCS 
178 1 2 0.000000 34.178513 33.271408 38.079208 # SCS 
179 1 2 0.000000 33.333473 32.337807 38.711021 # SCS 
180 1 1 0.000000 33.763596 31.158606 38.105679 # SCP 
181 1 1 0.000000 13.062945 25.835190 27.971668 # SCP 
182 1 2 0.000000 12.834241 27.180786 27.981037 # SCS 
183 1 2 0.000000 14.264347 27.694889 27.819805 # SCS 
184 1 2 0.000000 13.965446 29.000687 27.837248 # SCS 
185 1 2 0.000000 15.241880 29.434711 27.693628 # SCS 
186 1 2 0.000000 14.634797 30.709805 27.744902 # SCS 
187 1 2 0.000000 15.798072 31.292816 27.611855 # SCS 
188 1 2 0.000000 15.189384 32.579845 27.663164 # SCS 
189 1 2 0.000000 16.521496 33.140938 27.512030 # SCS 
190 1 2 0.000000 16.076105 34.471329 27.545107 # SCS 
191 1 2 0.000000 17.315693 35.125633 27.402954 # SCS 
192 1 1 0.000000 16.903028 36.456348 27.432467 # SCP 
193 1 1 0.000000 9.143452 16.623682 1.002519 # SCP 
194 1 2 0.000000 9.269972 17.780209 1.716286 # SCS 
195 1 2 0.000000 7.999360 18.505640 1.274929 # SCS 
196 1 2 0.000000 8.189028 19.613573 2.003803 # SCS 
197 1 2 0.000000 7.056285 20.238920 1.598683 # SCS 
198 1 2 0.000000 7.515467 21.261904 2.458738 # SCS 
199 1 2 0.000000 6.473073 21.998888 2.173984 # SCS 
200 1 2 0.000000 6.933010 23.032211 3.040172 # SCS 
201 1 2 0.000000 5.745043 23.781204 2.666098 # SCS 
202 1 2 0.000000 6.060718 24.883688 3.474976 # SCS 
203 1 2 0.000000 4.948171 25.698471 3.186427 # SCS 
204 1 1 0.000000 5.235379 26.807356 3.980058 # SCP 
205 1 1 0.000000 12.389032 5.200523 29.750990 # SCP 
206 1 2 0.000000 12.082856 6.485328 30.095314 # SCS 
207 1 2 0.000000 13.428395 6.936771 30.662083 # SCS 
208 1 2 0.000000 13.057103 8.185575 30.974142 # SCS 
209 1 2 0.000000 14.259639 8.564903 31.472445 # SCS 
210 1 2 0.000000 13.593282 9.792532 31.686771 # SCS 
211 1 2 0.000000 14.677266 10.316402 32.198002 # SCS 
212 1 2 0.000000 14.008601 11.555418 32.415504 # SCS 
213 1 2 0.000000 15.256704 12.054066 32.968475 # SCS 
214 1 2 0.000000 14.742659 13.330048 33.246025 # SCS 
215 1 2 0.000000 15.895644 13.919691 33.800861 # SCS 
216 1 1 0.000000 15.413122 15.195132 34.087887 # SCP 
217 1 1 0.000000 36.790680 24.300755 39.080608 # SCP 
218 1 2 0.000000 37.203098 23.873821 37.851521 # SCS 
219 1 2 0.000000 38.031116 22.655087 38.257195 # SCS 
220 1 2 0.000000 38.397327 22.294313 37.020069 # SCS 
221 1 2 0.000000 39.126896 21.217358 37.402405 # SCS 
222 1 2 0.000000 39.345238 21.084345 36.012558 # SCS 
223 1 2 0.000000 40.081657 20.021214 36.208141 # SCS 
224 1 2 0.000000 40.303844 19.884117 34.807636 # SCS 
225 1 2 0.000000 41.106495 18.713083 35.118477 # SCS 
226 1 2 0.000000 41.417377 18.443508 33.776806 # SCS 
227 1 2 0.000000 42.214718 17.296246 33.958275 # SCS 
228 1 1 0.000000 42.540176 17.003759 32.635212 # SCP 
229 1 1 0.000000 12.943511 11.000514 5.648517 # SCP 
230 1 2 0.000000 12.708069 12.338787 5.519608 # SCS 
231 1 2 0.000000 11.518867 12.492230 6.467107 # SCS 
232 1 2 0.000000 11.346142 13.809070 6.291464 # SCS 
233 1 2 0.000000 10.292128 13.922319 7.136754 # SCS 
234 1 2 0.000000 10.351796 15.282528 6.758191 # SCS 
235 1 2 0.000000 9.335343 15.564670 7.531519 # SCS 
236 1 2 0.000000 9.392615 16.936651 7.152091 # SCS 
237 1 2 0.000000 8.260397 17.158052 8.035974 # SCS 
238 1 2 0.000000 8.186450 18.532911 7.764493 # SCS 
239 1 2 0.000000 7.093467 18.865105 8.589072 # SCS 
240 1 1 0.000000 6.995723 20.232553 8.339098 # SCP 
241 1 1 0.000000 1.000020 15.415557 23.922026 # SCP 
242 1 2 0.000000 1.940405 15.387098 24.910910 # SCS 
243 1 2 0.000000 2.699355 16.675028 24.593525 # SCS 
244 1 2 0.000000 3.591652 16.581545 25.588421 # SCS 
245 1 2 0.000000 4.250581 17.727989 25.288822 # SCS 
246 1 2 0.000000 5.038883 17.366915 26.404726 # SCS 
247 1 2 0.000000 5.778798 18.435036 26.254864 # SCS 
248 1 2 0.000000 6.575554 18.074068 27.379347 # SCS 
249 1 2 0.000000 7.343631 19.283974 27.137732 # SCS 
250 1 2 0.000000 8.215641 19.068163 28.215893 # SCS 
251 1 2 0.000000 9.028670 20.210459 28.077909 # SCS 
252 1 1 0.000000 9.909533 20.022701 29.141294 # SCP 
253 1 1 0.000000 12.962735 41.061611 33.615017 # SCP 
254 1 2 0.000000 13.023733 41.140247 34.976311 # SCS 
255 1 2 0.000000 11.533650 41.224590 35.305008 # SCS 
256 1 2 0.000000 11.669598 41.298138 36.635746 # SCS 
257 1 2 0.000000 10.342717 41.371815 36.904530 # SCS 
258 1 2 0.000000 10.789827 41.432362 38.243732 # SCS 
259 1 2 0.000000 9.557298 41.511600 38.674324 # SCS 
260 1 2 0.000000 10.004528 41.572861 40.025551 # SCS 
261 1 2 0.000000 8.606339 41.656719 40.413136 # SCS 
262 1 2 0.000000 8.885326 41.726624 41.786705 # SCS 
263 1 2 0.000000 7.567841 41.813190 42.278267 # SCS 
264 1 1 0.000000 7.814150 41.884277 43.648026 # SCP 
265 1 1 0.000000 40.015953 26.364922 15.013924 # SCP 
266 1 2 0.000000 40.239563 27.559940 14.393479 # SCS 
267 1 2 0.000000 40.176926 27.116907 12.932213 # SCS 
268 1 2 0.000000 40.401421 28.322206 12.392206 # SCS 
269 1 2 0.000000 40.341801 27.907225 11.102818 # SCS 
270 1 2 0.000000 40.591785 29.271046 10.829803 # SCS 
271 1 2 0.000000 40.565487 29.040451 9.542577 # SCS 
272 1 2 0.000000 40.817413 30.414625 9.263716 # SCS 
273 1 2 0.000000 40.771358 30.066681 7.853397 # SCS 
274 1 2 0.000000 41.013840 31.378183 7.416858 # SCS 
275 1 2 0.000000 40.990761 31.158482 6.025422 # SCS 
276 1 1 0.000000 41.230087 32.450840 5.562287 # SCP 
277 1 1 0.000000 42.314796 18.302929 37.129257 # SCP 
278 1 2 0.000000 41.769981 17.189348 36.558170 # SCS 
279 1 2 0.000000 40.284748 17.483257 36.766006 # SCS 
280 1 2 0.000000 39.820816 16.366135 36.190197 # SCS 
281 1 2 0.000000 38.508785 16.647011 36.385056 # SCS 
282 1 2 0.000000 38.321037 15.406727 35.734303 # SCS 
283 1 2 0.000000 37.022606 15.522670 35.841263 # SCS 
284 1 2 0.000000 36.829666 14.272706 35.185558 # SCS 
285 1 2 0.000000 35.401154 14.485066 35.348175 # SCS 
286 1 2 0.000000 35.047031 13.280123 34.721985 # SCS 
287 1 2 0.000000 33.645313 13.378984 34.823517 # SCS 
288 1 1 0.000000 33.263470 12.189318 34.206387 # SCP 
289 1 1 0.000000 10.467062 37.373447 7.235462 # SCP 
290 1 2 0.000000 9.603335 38.069565 8.030712 # SCS 
291 1 2 0.000000 8.937434 36.913513 8.776117 # SCS 
292 1 2 0.000000 8.116295 37.661160 9.525455 # SCS 
293 1 2 0.000000 7.538824 36.620441 10.174855 # SCS 
294 1 2 0.000000 6.806761 37.645885 10.814846 # SCS 
295 1 2 0.000000 6.153103 36.764549 11.526743 # SCS 
296 1 2 0.000000 5.413284 37.795773 12.173912 # SCS 
297 1 2 0.000000 4.737152 36.748375 12.920901 # SCS 
298 1 2 0.000000 3.931721 37.642097 13.643358 # SCS 
299 1 2 0.000000 3.212725 36.714783 14.423118 # SCS 
300 1 1 0.000000 2.399836 37.577957 15.155311 # SCP 
301 1 1 0.000000 15.045486 19.108286 38.442551 # SCP 
302 1 2 0.000000 13.757840 18.688112 38.273888 # SCS 
303 1 2 0.000000 13.330493 18.547094 39.734364 # SCS 
304 1 2 0.000000 12.077654 18.138367 39.493351 # SCS 
305 1 2 0.000000 11.719815 18.020201 40.795761 # SCS 
306 1 2 0.000000 10.483016 17.617023 40.243664 # SCS 
307 1 2 0.000000 9.978862 17.451210 41.439133 # SCS 
308 1 2 0.000000 8.730658 17.044310 40.885963 # SCS 
309 1 2 0.000000 8.254513 16.887470 42.250103 # SCS 
310 1 2 0.000000 6.972083 16.469225 41.863003 # SCS 
311 1 2 0.000000 6.403473 16.282286 43.138397 # SCS 
312 1 1 0.000000 5.122127 15.864367 42.784199 # SCP 
313 1 1 0.000000 23.464983 43.994633 30.505993 # SCP 
314 1 2 0.000000 23.623158 42.783569 31.115358 # SCS 
315 1 2 0.000000 23.247944 43.156124 32.549206 # SCS 
316 1 2 0.000000 23.423529 41.938519 33.079636 # SCS 
317 1 2 0.000000 23.086926 42.291073 34.344818 # SCS 
318 1 2 0.000000 23.348883 40.928600 34.613300 # SCS 
319 1 2 0.000000 23.055004 41.098713 35.876434 # SCS 
320 1 2 0.000000 23.318241 39.725731 36.150658 # SCS 
321 1 2 0.000000 22.974380 40.006454 37.534546 # SCS 
322 1 2 0.000000 23.193722 38.688385 37.963482 # SCS 
323 1 2 0.000000 22.882839 38.843006 39.328888 # SCS 
324 1 1 0.000000 23.092798 37.542686 39.783913 # SCP 
325 1 1 0.000000 43.995117 13.637925 38.779758 # SCP 
326 1 2 0.000000 43.615849 14.826434 39.333496 # SCS 
327 1 2 0.000000 42.271374 15.028182 38.635513 # SCS 
328 1 2 0.000000 41.964157 16.194332 39.219009 # SCS 
329 1 2 0.000000 40.774490 16.353167 38.588337 # SCS 
330 1 2 0.000000 40.723675 17.544315 39.347034 # SCS 
331 1 2 0.000000 39.561443 17.849348 38.830322 # SCS 
332 1 2 0.000000 39.506931 19.050970 39.593681 # SCS 
333 1 2 0.000000 38.220360 19.309181 38.968987 # SCS 
334 1 2 0.000000 38.018711 20.520723 39.647892 # SCS 
335 1 2 0.000000 36.766487 20.874023 39.107517 # SCS 
336 1 1 0.000000 36.538830 22.080395 39.766914 # SCP 
337 1 1 0.000000 25.564003 39.894848 12.038764 # SCP 
338 1 2 0.000000 25.053427 40.077374 13.291370 # SCS 
339 1 2 0.000000 23.893160 39.083481 13.253209 # SCS 
340 1 2 0.000000 23.446638 39.314545 14.494975 # SCS 
341 1 2 0.000000 22.423155 38.427040 14.439232 # SCS 
342 1 2 0.000000 22.187620 38.873615 15.759131 # SCS 
343 1 2 0.000000 21.163475 38.067883 15.871993 # SCS 
344 1 2 0.000000 20.923141 38.515778 17.202862 # SCS 
345 1 2 0.000000 19.802298 37.591339 17.239092 # SCS 
346 1 2 0.000000 19.436956 37.925495 18.552208 # SCS 
347 1 2 0.000000 18.329515 37.067455 18.701323 # SCS 
348 1 1 0.000000 17.943207 37.378670 20.003578 # SCP 
349 1 1 0.000000 24.241577 27.374817 28.131001 # SCP 
350 1 2 0.000000 25.095119 28.324341 27.648411 # SCS 
351 1 2 0.000000 26.409891 27.831676 28.251867 # SCS 
352 1 2 0.000000 27.188047 28.796497 27.743589 # SCS 
353 1 2 0.000000 28.343037 28.341631 28.288918 # SCS 
354 1 2 0.000000 28.897528 29.461458 27.628948 # SCS 
355 1 2 0.000000 30.089800 29.161236 28.075237 # SCS 
356 1 2 0.000000 30.652140 30.289251 27.411207 # SCS 
357 1 2 0.000000 31.938076 29.880478 27.951077 # SCS 
358 1 2 0.000000 32.639114 30.942883 27.360104 # SCS 
359 1 2 0.000000 33.934216 30.643120 27.826735 # SCS 
360 1 1 0.000000 34.656818 31.687267 27.252657 # SCP 
361 1 1 0.000000 5.466319 13.302581 22.900011 # SCP 
362 1 2 0.000000 6.182203 12.189127 22.567215 # SCS 
363 1 2 0.000000 5.207018 11.101650 23.016558 # SCS 
364 1 2 0.000000 5.965054 10.054707 22.664360 # SCS 
365 1 2 0.000000 5.084919 9.106478 23.069958 # SCS 
366 1 2 0.000000 6.084513 8.221678 22.606300 # SCS 
367 1 2 0.000000 5.355917 7.188485 22.941677 # SCS 
368 1 2 0.000000 6.361513 6.293622 22.475227 # SCS 
369 1 2 0.000000 5.485386 5.206534 22.878748 # SCS 
370 1 2 0.000000 6.373613 4.201329 22.466413 # SCS 
371 1 2 0.000000 5.610183 3.070563 22.817753 # SCS 
372 1 1 0.000000 6.471604 2.050789 22.417784 # SCP 
373 1 1 0.000000 19.395107 13.196665 20.562151 # SCP 
374 1 2 0.000000 18.715246 12.241351 21.260855 # SCS 
375 1 2 0.000000 17.346771 12.343110 20.588232 # SCS 
376 1 2 0.000000 16.743252 11.392376 21.313917 # SCS 
377 1 2 0.000000 15.537458 11.499536 20.703289 # SCS 
378 1 2 0.000000 15.178430 10.474210 21.607082 # SCS 
379 1 2 0.000000 13.961537 10.448575 21.128199 # SCS 
380 1 2 0.000000 13.596169 9.414903 22.037928 # SCS 
381 1 2 0.000000 12.269719 9.455615 21.445427 # SCS 
382 1 2 0.000000 11.757746 8.443655 22.272001 # SCS 
383 1 2 0.000000 10.440224 8.394605 21.775387 # SCS 
384 1 1 0.000000 9.904140 7.392493 22.581825 # SCP 
385 1 1 0.000000 28.096838 36.918922 26.022200 # SCP 
386 1 2 0.000000 28.060478 37.081264 27.376949 # SCS 
387 1 2 0.000000 29.496710 36.696182 27.729731 # SCS 
388 1 2 0.000000 29.387882 36.876404 29.052769 # SCS 
389 1 2 0.000000 30.666420 36.530945 29.343096 # SCS 
390 1 2 0.000000 30.258932 36.799797 30.669258 # SCS 
391 1 2 0.000000 31.449509 36.498199 31.119127 # SCS 
392 1 2 0.000000 31.042103 36.768364 32.457264 # SCS 
393 1 2 0.000000 32.391056 36.415478 32.867126 # SCS 
394 1 2 0.000000 32.145569 36.640587 34.230385 # SCS 
395 1 2 0.000000 33.418720 36.321533 34.742428 # SCS 
396 1 1 0.000000 33.204556 36.537033 36.102444 # SCP 
397 1 1 0.000000 32.313679 35.302475 28.557842 # SCP 
398 1 2 0.000000 31.675549 35.618641 27.393433 # SCS 
399 1 2 0.000000 32.314411 36.975529 27.099829 # SCS 
400 1 2 0.000000 31.650396 37.219650 25.962181 # SCS 
401 1 2 0.000000 32.229931 38.421459 25.721201 # SCS 
402 1 2 0.000000 31.398176 38.403084 24.578886 # SCS 
403 1 2 0.000000 31.855968 39.568352 24.200216 # SCS 
404 1 2 0.000000 31.018799 39.553123 23.047613 # SCS 
405 1 2 0.000000 31.583033 40.847733 22.704374 # SCS 
406 1 2 0.000000 30.824568 40.981712 21.531265 # SCS 
407 1 2 0.000000 31.299986 42.235764 21.099718 # SCS 
408 1 1 0.000000 30.560444 42.396519 19.929594 # SCP 
409 1 1 0.000000 33.817577 29.927969 39.928474 # SCP 
410 1 2 0.000000 32.654011 29.431850 39.415638 # SCS 
411 1 2 0.000000 31.665203 30.468155 39.948395 # SCS 
412 1 2 0.000000 30.563656 29.924543 39.413765 # SCS 
413 1 2 0.000000 29.704088 30.855236 39.896717 # SCS 
414 1 2 0.000000 28.741495 30.069771 39.223297 # SCS 
415 1 2 0.000000 27.784597 30.874582 39.607281 # SCS 
416 1 2 0.000000 26.811529 30.085056 38.929516 # SCS 
417 1 2 0.000000 25.814371 31.031332 39.401138 # SCS 
418 1 2 0.000000 24.742598 30.363688 38.788803 # SCS 
419 1 2 0.000000 23.692337 31.213644 39.188084 # SCS 
420 1 1 0.000000 22.608526 30.572367 38.591358 # SCP 
421 1 1 0.000000 22.498489 9.688066 11.743171 # SCP 
422 1 2 0.000000 23.148481 8.646179 11.147349 # SCS 
423 1 2 0.000000 23.957121 8.123412 12.334075 # SCS 
424 1 2 0.000000 24.559467 7.118662 11.684146 # SCS 
425 1 2 0.000000 25.267660 6.671647 12.750414 # SCS 
426 1 2 0.000000 25.739464 5.716431 11.821974 # SCS 
427 1 2 0.000000 26.487188 5.161269 12.740406 # SCS 
428 1 2 0.000000 26.964914 4.196774 11.807074 # SCS 
429 1 2 0.000000 27.763012 3.645017 12.889106 # SCS 
430 1 2 0.000000 28.324699 2.632925 12.095646 # SCS 
431 1 2 0.000000 29.139515 2.015297 13.064927 # SCS 
432 1 1 0.000000 29.713455 1.000255 12.301880 # SCP 
433 1 1 0.000000 42.026306 21.043390 16.696842 # SCP 
434 1 2 0.000000 41.172173 19.992483 16.867353 # SCS 
435 1 2 0.000000 42.134171 18.827608 16.636852 # SCS 
436 1 2 0.000000 41.239960 17.846502 16.817320 # SCS 
437 1 2 0.000000 42.110767 16.828320 16.609262 # SCS 
438 1 2 0.000000 40.969971 16.028847 16.846891 # SCS 
439 1 2 0.000000 41.671635 14.938489 16.674829 # SCS 
440 1 2 0.000000 40.523621 14.129481 16.913889 # SCS 
441 1 2 0.000000 41.379379 12.973187 16.706886 # SCS 
442 1 2 0.000000 40.348736 12.044460 16.918186 # SCS 
443 1 2 0.000000 41.080219 10.853941 16.737930 # SCS 
444 1 1 0.000000 40.077206 9.908471 16.942894 # SCP 
445 1 1 0.000000 4.480372 34.411564 12.324353 # SCP 
446 1 2 0.000000 5.351836 33.898178 11.407833 # SCS 
447 1 2 0.000000 5.372358 32.435558 11.850348 # SCS 
448 1 2 0.000000 6.233887 32.001591 10.920729 # SCS 
449 1 2 0.000000 6.236990 30.709133 11.330406 # SCS 
450 1 2 0.000000 7.143165 30.548443 10.257996 # SCS 
451 1 2 0.000000 7.260839 29.272448 10.520307 # SCS 
452 1 2 0.000000 8.174657 29.106848 9.439987 # SCS 
453 1 2 0.000000 8.244135 27.701418 9.803477 # SCS 
454 1 2 0.000000 9.150899 27.376837 8.782775 # SCS 
455 1 2 0.000000 9.296540 25.999844 9.042720 # SCS 
456 1 1 0.000000 10.196757 25.647778 8.038917 # SCP 
457 1 1 0.000000 6.646350 35.165043 14.083432 # SCP 
458 1 2 0.000000 6.759500 34.966179 12.737819 # SCS 
459 1 2 0.000000 7.627847 33.708660 12.726769 # SCS 
460 1 2 0.000000 7.695799 33.575600 11.395443 # SCS 
461 1 2 0.000000 8.466454 32.460167 11.409018 # SCS 
462 1 2 0.000000 8.361422 32.575668 10.004502 # SCS 
463 1 2 0.000000 9.096842 31.506601 9.839968 # SCS 
464 1 2 0.000000 8.993043 31.620008 8.423654 # SCS 
465 1 2 0.000000 9.816394 30.425621 8.335780 # SCS 
466 1 2 0.000000 9.809043 30.399736 6.932683 # SCS 
467 1 2 0.000000 10.598541 29.251284 6.726170 # SCS 
468 1 1 0.000000 10.609034 29.199821 5.333618 # SCP 
469 1 1 0.000000 12.423976 31.498903 18.791433 # SCP 
470 1 2 0.000000 13.280172 30.863968 17.938904 # SCS 
471 1 2 0.000000 12.809998 29.420637 18.115629 # SCS 
472 1 2 0.000000 13.681302 28.865379 17.262827 # SCS 
473 1 2 0.000000 13.248067 27.592201 17.434902 # SCS 
474 1 2 0.000000 14.264502 27.299417 16.497789 # SCS 
475 1 2 0.000000 13.972213 26.025438 16.546385 # SCS 
476 1 2 0.000000 14.996020 25.726688 15.601849 # SCS 
477 1 2 0.000000 14.603029 24.332407 15.718998 # SCS 
478 1 2 0.000000 15.564757 23.878151 14.803502 # SCS 
479 1 2 0.000000 15.271373 22.500561 14.836207 # SCS 
480 1 1 0.000000 16.216078 22.020214 13.931354 # SCP 
481 1 1 0.000000 10.281691 1.343610 26.260111 # SCP 
482 1 2 0.000000 11.426250 1.341080 25.516470 # SCS 
483 1 2 0.000000 11.061447 2.386399 24.463034 # SCS 
484 1 2 0.000000 12.212835 2.330885 23.780409 # SCS 
485 1 2 0.000000 11.868337 3.261014 22.856033 # SCS 
486 1 2 0.000000 13.159259 2.989466 22.349258 # SCS 
487 1 2 0.000000 12.987920 3.858757 21.387077 # SCS 
488 1 2 0.000000 14.288772 3.587479 20.873491 # SCS 
489 1 2 0.000000 14.011514 4.570657 19.839722 # SCS 
490 1 2 0.000000 15.259037 4.416969 19.215647 # SCS 
491 1 2 0.000000 15.101599 5.347094 18.169235 # SCS 
492 1 1 0.000000 16.332073 5.216015 17.528370 # SCP 
493 1 1 0.000000 10.221245 34.287636 4.587800 # SCP 
494 1 2 0.000000 10.312943 33.831432 5.870958 # SCS 
495 1 2 0.000000 11.263502 32.652328 5.666866 # SCS 
496 1 2 0.000000 11.306061 32.260578 6.947286 # SCS 
497 1 2 0.000000 12.150236 31.219391 6.743373 # SCS 
498 1 2 0.000000 12.001617 31.045568 8.137911 # SCS 
499 1 2 0.000000 12.802958 30.012030 8.116264 # SCS 
500 1 2 0.000000 12.655408 29.833881 9.521992 # SCS 
501 1 2 0.000000 13.554872 28.698450 9.403891 # SCS 
502 1 2 0.000000 13.513243 28.392590 10.772877 # SCS 
503 1 2 0.000000 14.372790 27.276327 10.778753 # SCS 
504 1 1 0.000000 14.350966 26.948656 12.133048 # SCP 
505 1 1 0.000000 22.902327 37.213959 29.241817 # SCP 
506 1 2 0.000000 22.059235 37.448666 30.289259 # SCS 
507 1 2 0.000000 22.493416 38.864044 30.668324 # SCS 
508 1 2 0.000000 21.636900 39.024578 31.685850 # SCS 
509 1 2 0.000000 22.037884 40.279846 32.004910 # SCS 
510 1 2 0.000000 21.044416 40.161228 33.002903 # SCS 
511 1 2 0.000000 21.308271 41.365753 33.439159 # SCS 
512 1 2 0.000000 20.307533 41.249588 34.446438 # SCS 
513 1 2 0.000000 20.667412 42.594532 34.863327 # SCS 
514 1 2 0.000000 19.724567 42.635029 35.901985 # SCS 
515 1 2 0.000000 19.987825 43.929237 36.392506 # SCS 
516 1 1 0.000000 19.061111 43.998432 37.430954 # SCP 
517 1 1 0.000000 35.163898 19.503202 40.074665 # SCP 
518 1 2 0.000000 34.594784 20.704000 39.762875 # SCS 
519 1 2 0.000000 33.763031 20.296618 38.547256 # SCS 
520 1 2 0.000000 33.241898 21.505827 38.300304 # SCS 
521 1 2 0.000000 32.511738 21.122465 37.224113 # SCS 
522 1 2 0.000000 32.130466 22.483162 37.210728 # SCS 
523 1 2 0.000000 31.372845 22.282890 36.163483 # SCS 
524 1 2 0.000000 30.986357 23.653997 36.147026 # SCS 
525 1 2 0.000000 30.171162 23.339918 34.985561 # SCS 
526 1 2 0.000000 29.697245 24.652306 34.835732 # SCS 
527 1 2 0.000000 28.873674 24.465181 33.708073 # SCS 
528 1 1 0.000000 28.386343 25.759144 33.534489 # SCP 
529 1 1 0.000000 17.986307 7.442724 24.082327 # SCP 
530 1 2 0.000000 17.248129 8.418501 23.477365 # SCS 
531 1 2 0.000000 17.854565 9.657392 24.135305 # SCS 
532 1 2 0.000000 17.093166 10.560383 23.503143 # SCS 
533 1 2 0.000000 17.645590 11.645730 24.099079 # SCS 
534 1 2 0.000000 16.717537 12.347585 23.297110 # SCS 
535 1 2 0.000000 17.136805 13.490843 23.774595 # SCS 
536 1 2 0.000000 16.202452 14.201597 22.967506 # SCS 
537 1 2 0.000000 16.730417 15.423191 23.551582 # SCS 
538 1 2 0.000000 15.872201 16.262794 22.824993 # SCS 
539 1 2 0.000000 16.304129 17.508219 23.322239 # SCS 
540 1 1 0.000000 15.464934 18.366768 22.614702 # SCP 
541 1 1 0.000000 17.397148 33.681660 37.558006 # SCP 
542 1 2 0.000000 18.091686 32.546356 37.255146 # SCS 
543 1 2 0.000000 19.492855 33.130554 37.079247 # SCS 
544 1 2 0.000000 20.109247 31.977201 36.788403 # SCS 
545 1 2 0.000000 21.343874 32.516747 36.637161 # SCS 
546 1 2 0.000000 21.709841 31.179068 36.365650 # SCS 
547 1 2 0.000000 22.955627 31.533987 36.184364 # SCS 
548 1 2 0.000000 23.328074 30.186520 35.910149 # SCS 