LAMMPS data file. CGCMM style. atom_style full generated by VMD/TopoTools v1.7 on Tue Apr 12 14:56:17 BST 2022
 5 atoms
 4 bonds
 3 angles
 2 dihedrals
 0 impropers
 5 atom types
 4 bond types
 3 angle types
 2 dihedral types
 0 improper types
 -0.416785 4.583215  xlo xhi
 -2.552375 2.447625  ylo yhi
 -2.324060 2.675940  zlo zhi

 Pair Coeffs

1 0.086 3.3  # 1  CHE 755/19
2 0.1   3.3  # 2  COE 759/19
3 0.015 2.42 # 3  HCE 756/46
4 0.0   0.0  # 4  HOE 97/7
5 0.17  3.12 # 5  OHE 96/5

 Bond Coeffs

1 575.0 1.21  # 1  CHE-COE 19-19
2 210.0 1.08  # 2  CHE-HCE 19-46
3 275.0 0.137 # 3  COE-OHE 5-19 5-47
4 276.5 0.945 # 4  HOE-OHE 5-7

 Angle Coeffs

1 75.0 180.0 # 1  CHE-COE-OHE 5-19-19 13-19-19
2 56.0 180.0 # 2  COE-CHE-HCE 19-19-46
3 17.5 109.0 # 3  COE-OHE-HOE 7-5-19 7-5-47

 Dihedral Coeffs

1 0.0 0.0 0.0 0.0 # 1  CHE-COE-OHE-HOE 7-5-19-19 0-19-19-0
2 0.0 0.0 0.0 0.0 # 2  HCE-CHE-COE-OHE 5-19-19-46 0-19-19-0

 Masses

 1 12.011000 # CHE
 2 12.011000 # COE
 3 1.008000 # HCE
 4 1.008000 # HOE
 5 15.999000 # OHE

 Atoms # full

1 1 1 -0.210000 1.092820 -0.053130 0.096230 # CHE 
2 1 2 0.275000 2.291950 -0.051620 0.089970 # COE 
3 1 5 -0.683000 3.618390 -0.049050 0.079370 # OHE 
4 1 3 0.200000 0.028040 -0.052070 0.091850 # HCE 
5 1 4 0.418000 3.964790 -0.262530 0.961910 # HOE 

 Bonds

1 2 1 4
2 1 1 2
3 3 2 3
4 4 3 5

 Angles

1 2 2 1 4
2 1 1 2 3
3 3 2 3 5

 Dihedrals

1 2 4 1 2 3
2 1 1 2 3 5

