Combined LAMMPS data file
7200 atoms
25560 bonds
2000 angles
1800 dihedrals
0 impropers
6 atom types
16 bond types
2 angle types
2 dihedral types
0 improper types
0.0 55.088 xlo xhi
0.0 50.38 ylo yhi
-20.0 120.0 zlo zhi

Pair Coeffs

1 0.1699 2.2 # Fe_s
2 0.1699 2.96 # O_s
3 0.1699 2.2 # Fe_s
4 0.1699 2.96 # O_s
5 0.175 3.905 # 1  SCP 10
6 0.118 3.905 # 2  SCS 13

Bond Coeffs

1 130.0 1.95 # SB1-SB1
2 130.0 2.1 # SB2-SB2
3 130.0 2.6 # SB3-SB3
4 130.0 2.75 # SB4-SB4
5 130.0 2.85 # SB5-SB5
6 130.0 2.9 # SB6-SB6
7 130.0 2.95 # SB7-SB7
8 130.0 1.95 # SB1-SB1
9 130.0 2.1 # SB2-SB2
10 130.0 2.6 # SB3-SB3
11 130.0 2.75 # SB4-SB4
12 130.0 2.85 # SB5-SB5
13 130.0 2.9 # SB6-SB6
14 130.0 2.95 # SB7-SB7
15 130.0 1.526 # 1  SCP-SCS 6-2
16 130.0 1.526 # 2  SCS-SCS 2-2

Angle Coeffs

1 31.5 112.4 # 1  SCP-SCS-SCS 6-2-2
2 31.5 112.4 # 2  SCS-SCS-SCS 2-2-2

Dihedral Coeffs

1 -3.4 1.25 3.1 0.0 # 1  SCP-SCS-SCS-SCS 6-2-2-2
2 -3.4 1.25 3.1 0.0 # 2  SCS-SCS-SCS-SCS 2-2-2-2

Masses

1 55.8500 # Fe_s
2 15.9900 # O_s
3 55.8500 # Fe_s
4 15.9900 # O_s
5 15.0350 # SCP
6 14.0270 # SCS

Atoms

1 1 1 0.7710 2.598000 2.519000 -8.772000 # Fe_s
2 1 1 0.7710 2.598000 7.557000 -8.772000 # Fe_s
3 1 1 0.7710 2.598000 12.595000 -8.772000 # Fe_s
4 1 1 0.7710 2.598000 17.632999 -8.772000 # Fe_s
5 1 1 0.7710 2.598000 22.671000 -8.772000 # Fe_s
6 1 1 0.7710 2.598000 27.709000 -8.772000 # Fe_s
7 1 1 0.7710 2.598000 32.747002 -8.772000 # Fe_s
8 1 1 0.7710 2.598000 37.785000 -8.772000 # Fe_s
9 1 1 0.7710 2.598000 42.823002 -8.772000 # Fe_s
10 1 1 0.7710 2.598000 47.861000 -8.772000 # Fe_s
11 1 1 0.7710 6.583000 2.519000 -8.772000 # Fe_s
12 1 1 0.7710 6.583000 7.557000 -8.772000 # Fe_s
13 1 1 0.7710 6.583000 12.595000 -8.772000 # Fe_s
14 1 1 0.7710 6.583000 17.632999 -8.772000 # Fe_s
15 1 1 0.7710 6.583000 22.671000 -8.772000 # Fe_s
16 1 1 0.7710 6.583000 27.709000 -8.772000 # Fe_s
17 1 1 0.7710 6.583000 32.747002 -8.772000 # Fe_s
18 1 1 0.7710 6.583000 37.785000 -8.772000 # Fe_s
19 1 1 0.7710 6.583000 42.823002 -8.772000 # Fe_s
20 1 1 0.7710 6.583000 47.861000 -8.772000 # Fe_s
21 1 1 0.7710 9.484000 2.519000 -8.772000 # Fe_s
22 1 1 0.7710 9.484000 7.557000 -8.772000 # Fe_s
23 1 1 0.7710 9.484000 12.595000 -8.772000 # Fe_s
24 1 1 0.7710 9.484000 17.632999 -8.772000 # Fe_s
25 1 1 0.7710 9.484000 22.671000 -8.772000 # Fe_s
26 1 1 0.7710 9.484000 27.709000 -8.772000 # Fe_s
27 1 1 0.7710 9.484000 32.747002 -8.772000 # Fe_s
28 1 1 0.7710 9.484000 37.785000 -8.772000 # Fe_s
29 1 1 0.7710 9.484000 42.823002 -8.772000 # Fe_s
30 1 1 0.7710 9.484000 47.861000 -8.772000 # Fe_s
31 1 1 0.7710 13.469000 2.519000 -8.772000 # Fe_s
32 1 1 0.7710 13.469000 7.557000 -8.772000 # Fe_s
33 1 1 0.7710 13.469000 12.595000 -8.772000 # Fe_s
34 1 1 0.7710 13.469000 17.632999 -8.772000 # Fe_s
35 1 1 0.7710 13.469000 22.671000 -8.772000 # Fe_s
36 1 1 0.7710 13.469000 27.709000 -8.772000 # Fe_s
37 1 1 0.7710 13.469000 32.747002 -8.772000 # Fe_s
38 1 1 0.7710 13.469000 37.785000 -8.772000 # Fe_s
39 1 1 0.7710 13.469000 42.823002 -8.772000 # Fe_s
40 1 1 0.7710 13.469000 47.861000 -8.772000 # Fe_s
41 1 1 0.7710 16.370001 2.519000 -8.772000 # Fe_s
42 1 1 0.7710 16.370001 7.557000 -8.772000 # Fe_s
43 1 1 0.7710 16.370001 12.595000 -8.772000 # Fe_s
44 1 1 0.7710 16.370001 17.632999 -8.772000 # Fe_s
45 1 1 0.7710 16.370001 22.671000 -8.772000 # Fe_s
46 1 1 0.7710 16.370001 27.709000 -8.772000 # Fe_s
47 1 1 0.7710 16.370001 32.747002 -8.772000 # Fe_s
48 1 1 0.7710 16.370001 37.785000 -8.772000 # Fe_s
49 1 1 0.7710 16.370001 42.823002 -8.772000 # Fe_s
50 1 1 0.7710 16.370001 47.861000 -8.772000 # Fe_s
51 1 1 0.7710 20.355000 2.519000 -8.772000 # Fe_s
52 1 1 0.7710 20.355000 7.557000 -8.772000 # Fe_s
53 1 1 0.7710 20.355000 12.595000 -8.772000 # Fe_s
54 1 1 0.7710 20.355000 17.632999 -8.772000 # Fe_s
55 1 1 0.7710 20.355000 22.671000 -8.772000 # Fe_s
56 1 1 0.7710 20.355000 27.709000 -8.772000 # Fe_s
57 1 1 0.7710 20.355000 32.747002 -8.772000 # Fe_s
58 1 1 0.7710 20.355000 37.785000 -8.772000 # Fe_s
59 1 1 0.7710 20.355000 42.823002 -8.772000 # Fe_s
60 1 1 0.7710 20.355000 47.861000 -8.772000 # Fe_s
61 1 1 0.7710 23.256001 2.519000 -8.772000 # Fe_s
62 1 1 0.7710 23.256001 7.557000 -8.772000 # Fe_s
63 1 1 0.7710 23.256001 12.595000 -8.772000 # Fe_s
64 1 1 0.7710 23.256001 17.632999 -8.772000 # Fe_s
65 1 1 0.7710 23.256001 22.671000 -8.772000 # Fe_s
66 1 1 0.7710 23.256001 27.709000 -8.772000 # Fe_s
67 1 1 0.7710 23.256001 32.747002 -8.772000 # Fe_s
68 1 1 0.7710 23.256001 37.785000 -8.772000 # Fe_s
69 1 1 0.7710 23.256001 42.823002 -8.772000 # Fe_s
70 1 1 0.7710 23.256001 47.861000 -8.772000 # Fe_s
71 1 1 0.7710 27.240999 2.519000 -8.772000 # Fe_s
72 1 1 0.7710 27.240999 7.557000 -8.772000 # Fe_s
73 1 1 0.7710 27.240999 12.595000 -8.772000 # Fe_s
74 1 1 0.7710 27.240999 17.632999 -8.772000 # Fe_s
75 1 1 0.7710 27.240999 22.671000 -8.772000 # Fe_s
76 1 1 0.7710 27.240999 27.709000 -8.772000 # Fe_s
77 1 1 0.7710 27.240999 32.747002 -8.772000 # Fe_s
78 1 1 0.7710 27.240999 37.785000 -8.772000 # Fe_s
79 1 1 0.7710 27.240999 42.823002 -8.772000 # Fe_s
80 1 1 0.7710 27.240999 47.861000 -8.772000 # Fe_s
81 1 1 0.7710 30.142000 2.519000 -8.772000 # Fe_s
82 1 1 0.7710 30.142000 7.557000 -8.772000 # Fe_s
83 1 1 0.7710 30.142000 12.595000 -8.772000 # Fe_s
84 1 1 0.7710 30.142000 17.632999 -8.772000 # Fe_s
85 1 1 0.7710 30.142000 22.671000 -8.772000 # Fe_s
86 1 1 0.7710 30.142000 27.709000 -8.772000 # Fe_s
87 1 1 0.7710 30.142000 32.747002 -8.772000 # Fe_s
88 1 1 0.7710 30.142000 37.785000 -8.772000 # Fe_s
89 1 1 0.7710 30.142000 42.823002 -8.772000 # Fe_s
90 1 1 0.7710 30.142000 47.861000 -8.772000 # Fe_s
91 1 1 0.7710 34.126999 2.519000 -8.772000 # Fe_s
92 1 1 0.7710 34.126999 7.557000 -8.772000 # Fe_s
93 1 1 0.7710 34.126999 12.595000 -8.772000 # Fe_s
94 1 1 0.7710 34.126999 17.632999 -8.772000 # Fe_s
95 1 1 0.7710 34.126999 22.671000 -8.772000 # Fe_s
96 1 1 0.7710 34.126999 27.709000 -8.772000 # Fe_s
97 1 1 0.7710 34.126999 32.747002 -8.772000 # Fe_s
98 1 1 0.7710 34.126999 37.785000 -8.772000 # Fe_s
99 1 1 0.7710 34.126999 42.823002 -8.772000 # Fe_s
100 1 1 0.7710 34.126999 47.861000 -8.772000 # Fe_s
101 1 1 0.7710 37.028000 2.519000 -8.772000 # Fe_s
102 1 1 0.7710 37.028000 7.557000 -8.772000 # Fe_s
103 1 1 0.7710 37.028000 12.595000 -8.772000 # Fe_s
104 1 1 0.7710 37.028000 17.632999 -8.772000 # Fe_s
105 1 1 0.7710 37.028000 22.671000 -8.772000 # Fe_s
106 1 1 0.7710 37.028000 27.709000 -8.772000 # Fe_s
107 1 1 0.7710 37.028000 32.747002 -8.772000 # Fe_s
108 1 1 0.7710 37.028000 37.785000 -8.772000 # Fe_s
109 1 1 0.7710 37.028000 42.823002 -8.772000 # Fe_s
110 1 1 0.7710 37.028000 47.861000 -8.772000 # Fe_s
111 1 1 0.7710 41.013000 2.519000 -8.772000 # Fe_s
112 1 1 0.7710 41.013000 7.557000 -8.772000 # Fe_s
113 1 1 0.7710 41.013000 12.595000 -8.772000 # Fe_s
114 1 1 0.7710 41.013000 17.632999 -8.772000 # Fe_s
115 1 1 0.7710 41.013000 22.671000 -8.772000 # Fe_s
116 1 1 0.7710 41.013000 27.709000 -8.772000 # Fe_s
117 1 1 0.7710 41.013000 32.747002 -8.772000 # Fe_s
118 1 1 0.7710 41.013000 37.785000 -8.772000 # Fe_s
119 1 1 0.7710 41.013000 42.823002 -8.772000 # Fe_s
120 1 1 0.7710 41.013000 47.861000 -8.772000 # Fe_s
121 1 1 0.7710 43.914001 2.519000 -8.772000 # Fe_s
122 1 1 0.7710 43.914001 7.557000 -8.772000 # Fe_s
123 1 1 0.7710 43.914001 12.595000 -8.772000 # Fe_s
124 1 1 0.7710 43.914001 17.632999 -8.772000 # Fe_s
125 1 1 0.7710 43.914001 22.671000 -8.772000 # Fe_s
126 1 1 0.7710 43.914001 27.709000 -8.772000 # Fe_s
127 1 1 0.7710 43.914001 32.747002 -8.772000 # Fe_s
128 1 1 0.7710 43.914001 37.785000 -8.772000 # Fe_s
129 1 1 0.7710 43.914001 42.823002 -8.772000 # Fe_s
130 1 1 0.7710 43.914001 47.861000 -8.772000 # Fe_s
131 1 1 0.7710 47.898998 2.519000 -8.772000 # Fe_s
132 1 1 0.7710 47.898998 7.557000 -8.772000 # Fe_s
133 1 1 0.7710 47.898998 12.595000 -8.772000 # Fe_s
134 1 1 0.7710 47.898998 17.632999 -8.772000 # Fe_s
135 1 1 0.7710 47.898998 22.671000 -8.772000 # Fe_s
136 1 1 0.7710 47.898998 27.709000 -8.772000 # Fe_s
137 1 1 0.7710 47.898998 32.747002 -8.772000 # Fe_s
138 1 1 0.7710 47.898998 37.785000 -8.772000 # Fe_s
139 1 1 0.7710 47.898998 42.823002 -8.772000 # Fe_s
140 1 1 0.7710 47.898998 47.861000 -8.772000 # Fe_s
141 1 1 0.7710 50.799999 2.519000 -8.772000 # Fe_s
142 1 1 0.7710 50.799999 7.557000 -8.772000 # Fe_s
143 1 1 0.7710 50.799999 12.595000 -8.772000 # Fe_s
144 1 1 0.7710 50.799999 17.632999 -8.772000 # Fe_s
145 1 1 0.7710 50.799999 22.671000 -8.772000 # Fe_s
146 1 1 0.7710 50.799999 27.709000 -8.772000 # Fe_s
147 1 1 0.7710 50.799999 32.747002 -8.772000 # Fe_s
148 1 1 0.7710 50.799999 37.785000 -8.772000 # Fe_s
149 1 1 0.7710 50.799999 42.823002 -8.772000 # Fe_s
150 1 1 0.7710 50.799999 47.861000 -8.772000 # Fe_s
151 1 1 0.7710 54.785000 2.519000 -8.772000 # Fe_s
152 1 1 0.7710 54.785000 7.557000 -8.772000 # Fe_s
153 1 1 0.7710 54.785000 12.595000 -8.772000 # Fe_s
154 1 1 0.7710 54.785000 17.632999 -8.772000 # Fe_s
155 1 1 0.7710 54.785000 22.671000 -8.772000 # Fe_s
156 1 1 0.7710 54.785000 27.709000 -8.772000 # Fe_s
157 1 1 0.7710 54.785000 32.747002 -8.772000 # Fe_s
158 1 1 0.7710 54.785000 37.785000 -8.772000 # Fe_s
159 1 1 0.7710 54.785000 42.823002 -8.772000 # Fe_s
160 1 1 0.7710 54.785000 47.861000 -8.772000 # Fe_s
161 1 1 0.7710 0.303000 0.000000 -7.317000 # Fe_s
162 1 1 0.7710 0.303000 5.038000 -7.317000 # Fe_s
163 1 1 0.7710 0.303000 10.076000 -7.317000 # Fe_s
164 1 1 0.7710 0.303000 15.114000 -7.317000 # Fe_s
165 1 1 0.7710 0.303000 20.152000 -7.317000 # Fe_s
166 1 1 0.7710 0.303000 25.190001 -7.317000 # Fe_s
167 1 1 0.7710 0.303000 30.228001 -7.317000 # Fe_s
168 1 1 0.7710 0.303000 35.265999 -7.317000 # Fe_s
169 1 1 0.7710 0.303000 40.304001 -7.317000 # Fe_s
170 1 1 0.7710 0.303000 45.341999 -7.317000 # Fe_s
171 1 1 0.7710 4.288000 0.000000 -7.317000 # Fe_s
172 1 1 0.7710 4.288000 5.038000 -7.317000 # Fe_s
173 1 1 0.7710 4.288000 10.076000 -7.317000 # Fe_s
174 1 1 0.7710 4.288000 15.114000 -7.317000 # Fe_s
175 1 1 0.7710 4.288000 20.152000 -7.317000 # Fe_s
176 1 1 0.7710 4.288000 25.190001 -7.317000 # Fe_s
177 1 1 0.7710 4.288000 30.228001 -7.317000 # Fe_s
178 1 1 0.7710 4.288000 35.265999 -7.317000 # Fe_s
179 1 1 0.7710 4.288000 40.304001 -7.317000 # Fe_s
180 1 1 0.7710 4.288000 45.341999 -7.317000 # Fe_s
181 1 1 0.7710 7.189000 0.000000 -7.317000 # Fe_s
182 1 1 0.7710 7.189000 5.038000 -7.317000 # Fe_s
183 1 1 0.7710 7.189000 10.076000 -7.317000 # Fe_s
184 1 1 0.7710 7.189000 15.114000 -7.317000 # Fe_s
185 1 1 0.7710 7.189000 20.152000 -7.317000 # Fe_s
186 1 1 0.7710 7.189000 25.190001 -7.317000 # Fe_s
187 1 1 0.7710 7.189000 30.228001 -7.317000 # Fe_s
188 1 1 0.7710 7.189000 35.265999 -7.317000 # Fe_s
189 1 1 0.7710 7.189000 40.304001 -7.317000 # Fe_s
190 1 1 0.7710 7.189000 45.341999 -7.317000 # Fe_s
191 1 1 0.7710 11.174000 0.000000 -7.317000 # Fe_s
192 1 1 0.7710 11.174000 5.038000 -7.317000 # Fe_s
193 1 1 0.7710 11.174000 10.076000 -7.317000 # Fe_s
194 1 1 0.7710 11.174000 15.114000 -7.317000 # Fe_s
195 1 1 0.7710 11.174000 20.152000 -7.317000 # Fe_s
196 1 1 0.7710 11.174000 25.190001 -7.317000 # Fe_s
197 1 1 0.7710 11.174000 30.228001 -7.317000 # Fe_s
198 1 1 0.7710 11.174000 35.265999 -7.317000 # Fe_s
199 1 1 0.7710 11.174000 40.304001 -7.317000 # Fe_s
200 1 1 0.7710 11.174000 45.341999 -7.317000 # Fe_s
201 1 1 0.7710 14.075000 0.000000 -7.317000 # Fe_s
202 1 1 0.7710 14.075000 5.038000 -7.317000 # Fe_s
203 1 1 0.7710 14.075000 10.076000 -7.317000 # Fe_s
204 1 1 0.7710 14.075000 15.114000 -7.317000 # Fe_s
205 1 1 0.7710 14.075000 20.152000 -7.317000 # Fe_s
206 1 1 0.7710 14.075000 25.190001 -7.317000 # Fe_s
207 1 1 0.7710 14.075000 30.228001 -7.317000 # Fe_s
208 1 1 0.7710 14.075000 35.265999 -7.317000 # Fe_s
209 1 1 0.7710 14.075000 40.304001 -7.317000 # Fe_s
210 1 1 0.7710 14.075000 45.341999 -7.317000 # Fe_s
211 1 1 0.7710 18.059999 0.000000 -7.317000 # Fe_s
212 1 1 0.7710 18.059999 5.038000 -7.317000 # Fe_s
213 1 1 0.7710 18.059999 10.076000 -7.317000 # Fe_s
214 1 1 0.7710 18.059999 15.114000 -7.317000 # Fe_s
215 1 1 0.7710 18.059999 20.152000 -7.317000 # Fe_s
216 1 1 0.7710 18.059999 25.190001 -7.317000 # Fe_s
217 1 1 0.7710 18.059999 30.228001 -7.317000 # Fe_s
218 1 1 0.7710 18.059999 35.265999 -7.317000 # Fe_s
219 1 1 0.7710 18.059999 40.304001 -7.317000 # Fe_s
220 1 1 0.7710 18.059999 45.341999 -7.317000 # Fe_s
221 1 1 0.7710 20.961000 0.000000 -7.317000 # Fe_s
222 1 1 0.7710 20.961000 5.038000 -7.317000 # Fe_s
223 1 1 0.7710 20.961000 10.076000 -7.317000 # Fe_s
224 1 1 0.7710 20.961000 15.114000 -7.317000 # Fe_s
225 1 1 0.7710 20.961000 20.152000 -7.317000 # Fe_s
226 1 1 0.7710 20.961000 25.190001 -7.317000 # Fe_s
227 1 1 0.7710 20.961000 30.228001 -7.317000 # Fe_s
228 1 1 0.7710 20.961000 35.265999 -7.317000 # Fe_s
229 1 1 0.7710 20.961000 40.304001 -7.317000 # Fe_s
230 1 1 0.7710 20.961000 45.341999 -7.317000 # Fe_s
231 1 1 0.7710 24.945999 0.000000 -7.317000 # Fe_s
232 1 1 0.7710 24.945999 5.038000 -7.317000 # Fe_s
233 1 1 0.7710 24.945999 10.076000 -7.317000 # Fe_s
234 1 1 0.7710 24.945999 15.114000 -7.317000 # Fe_s
235 1 1 0.7710 24.945999 20.152000 -7.317000 # Fe_s
236 1 1 0.7710 24.945999 25.190001 -7.317000 # Fe_s
237 1 1 0.7710 24.945999 30.228001 -7.317000 # Fe_s
238 1 1 0.7710 24.945999 35.265999 -7.317000 # Fe_s
239 1 1 0.7710 24.945999 40.304001 -7.317000 # Fe_s
240 1 1 0.7710 24.945999 45.341999 -7.317000 # Fe_s
241 1 1 0.7710 27.847000 0.000000 -7.317000 # Fe_s
242 1 1 0.7710 27.847000 5.038000 -7.317000 # Fe_s
243 1 1 0.7710 27.847000 10.076000 -7.317000 # Fe_s
244 1 1 0.7710 27.847000 15.114000 -7.317000 # Fe_s
245 1 1 0.7710 27.847000 20.152000 -7.317000 # Fe_s
246 1 1 0.7710 27.847000 25.190001 -7.317000 # Fe_s
247 1 1 0.7710 27.847000 30.228001 -7.317000 # Fe_s
248 1 1 0.7710 27.847000 35.265999 -7.317000 # Fe_s
249 1 1 0.7710 27.847000 40.304001 -7.317000 # Fe_s
250 1 1 0.7710 27.847000 45.341999 -7.317000 # Fe_s
251 1 1 0.7710 31.832001 0.000000 -7.317000 # Fe_s
252 1 1 0.7710 31.832001 5.038000 -7.317000 # Fe_s
253 1 1 0.7710 31.832001 10.076000 -7.317000 # Fe_s
254 1 1 0.7710 31.832001 15.114000 -7.317000 # Fe_s
255 1 1 0.7710 31.832001 20.152000 -7.317000 # Fe_s
256 1 1 0.7710 31.832001 25.190001 -7.317000 # Fe_s
257 1 1 0.7710 31.832001 30.228001 -7.317000 # Fe_s
258 1 1 0.7710 31.832001 35.265999 -7.317000 # Fe_s
259 1 1 0.7710 31.832001 40.304001 -7.317000 # Fe_s
260 1 1 0.7710 31.832001 45.341999 -7.317000 # Fe_s
261 1 1 0.7710 34.733002 0.000000 -7.317000 # Fe_s
262 1 1 0.7710 34.733002 5.038000 -7.317000 # Fe_s
263 1 1 0.7710 34.733002 10.076000 -7.317000 # Fe_s
264 1 1 0.7710 34.733002 15.114000 -7.317000 # Fe_s
265 1 1 0.7710 34.733002 20.152000 -7.317000 # Fe_s
266 1 1 0.7710 34.733002 25.190001 -7.317000 # Fe_s
267 1 1 0.7710 34.733002 30.228001 -7.317000 # Fe_s
268 1 1 0.7710 34.733002 35.265999 -7.317000 # Fe_s
269 1 1 0.7710 34.733002 40.304001 -7.317000 # Fe_s
270 1 1 0.7710 34.733002 45.341999 -7.317000 # Fe_s
271 1 1 0.7710 38.717999 0.000000 -7.317000 # Fe_s
272 1 1 0.7710 38.717999 5.038000 -7.317000 # Fe_s
273 1 1 0.7710 38.717999 10.076000 -7.317000 # Fe_s
274 1 1 0.7710 38.717999 15.114000 -7.317000 # Fe_s
275 1 1 0.7710 38.717999 20.152000 -7.317000 # Fe_s
276 1 1 0.7710 38.717999 25.190001 -7.317000 # Fe_s
277 1 1 0.7710 38.717999 30.228001 -7.317000 # Fe_s
278 1 1 0.7710 38.717999 35.265999 -7.317000 # Fe_s
279 1 1 0.7710 38.717999 40.304001 -7.317000 # Fe_s
280 1 1 0.7710 38.717999 45.341999 -7.317000 # Fe_s
281 1 1 0.7710 41.618999 0.000000 -7.317000 # Fe_s
282 1 1 0.7710 41.618999 5.038000 -7.317000 # Fe_s
283 1 1 0.7710 41.618999 10.076000 -7.317000 # Fe_s
284 1 1 0.7710 41.618999 15.114000 -7.317000 # Fe_s
285 1 1 0.7710 41.618999 20.152000 -7.317000 # Fe_s
286 1 1 0.7710 41.618999 25.190001 -7.317000 # Fe_s
287 1 1 0.7710 41.618999 30.228001 -7.317000 # Fe_s
288 1 1 0.7710 41.618999 35.265999 -7.317000 # Fe_s
289 1 1 0.7710 41.618999 40.304001 -7.317000 # Fe_s
290 1 1 0.7710 41.618999 45.341999 -7.317000 # Fe_s
291 1 1 0.7710 45.604000 0.000000 -7.317000 # Fe_s
292 1 1 0.7710 45.604000 5.038000 -7.317000 # Fe_s
293 1 1 0.7710 45.604000 10.076000 -7.317000 # Fe_s
294 1 1 0.7710 45.604000 15.114000 -7.317000 # Fe_s
295 1 1 0.7710 45.604000 20.152000 -7.317000 # Fe_s
296 1 1 0.7710 45.604000 25.190001 -7.317000 # Fe_s
297 1 1 0.7710 45.604000 30.228001 -7.317000 # Fe_s
298 1 1 0.7710 45.604000 35.265999 -7.317000 # Fe_s
299 1 1 0.7710 45.604000 40.304001 -7.317000 # Fe_s
300 1 1 0.7710 45.604000 45.341999 -7.317000 # Fe_s
301 1 1 0.7710 48.505001 0.000000 -7.317000 # Fe_s
302 1 1 0.7710 48.505001 5.038000 -7.317000 # Fe_s
303 1 1 0.7710 48.505001 10.076000 -7.317000 # Fe_s
304 1 1 0.7710 48.505001 15.114000 -7.317000 # Fe_s
305 1 1 0.7710 48.505001 20.152000 -7.317000 # Fe_s
306 1 1 0.7710 48.505001 25.190001 -7.317000 # Fe_s
307 1 1 0.7710 48.505001 30.228001 -7.317000 # Fe_s
308 1 1 0.7710 48.505001 35.265999 -7.317000 # Fe_s
309 1 1 0.7710 48.505001 40.304001 -7.317000 # Fe_s
310 1 1 0.7710 48.505001 45.341999 -7.317000 # Fe_s
311 1 1 0.7710 52.490002 0.000000 -7.317000 # Fe_s
312 1 1 0.7710 52.490002 5.038000 -7.317000 # Fe_s
313 1 1 0.7710 52.490002 10.076000 -7.317000 # Fe_s
314 1 1 0.7710 52.490002 15.114000 -7.317000 # Fe_s
315 1 1 0.7710 52.490002 20.152000 -7.317000 # Fe_s
316 1 1 0.7710 52.490002 25.190001 -7.317000 # Fe_s
317 1 1 0.7710 52.490002 30.228001 -7.317000 # Fe_s
318 1 1 0.7710 52.490002 35.265999 -7.317000 # Fe_s
319 1 1 0.7710 52.490002 40.304001 -7.317000 # Fe_s
320 1 1 0.7710 52.490002 45.341999 -7.317000 # Fe_s
321 1 1 0.7710 1.993000 2.519000 -5.863000 # Fe_s
322 1 1 0.7710 1.993000 7.557000 -5.863000 # Fe_s
323 1 1 0.7710 1.993000 12.595000 -5.863000 # Fe_s
324 1 1 0.7710 1.993000 17.632999 -5.863000 # Fe_s
325 1 1 0.7710 1.993000 22.671000 -5.863000 # Fe_s
326 1 1 0.7710 1.993000 27.709000 -5.863000 # Fe_s
327 1 1 0.7710 1.993000 32.747002 -5.863000 # Fe_s
328 1 1 0.7710 1.993000 37.785000 -5.863000 # Fe_s
329 1 1 0.7710 1.993000 42.823002 -5.863000 # Fe_s
330 1 1 0.7710 1.993000 47.861000 -5.863000 # Fe_s
331 1 1 0.7710 4.893000 2.519000 -5.863000 # Fe_s
332 1 1 0.7710 4.893000 7.557000 -5.863000 # Fe_s
333 1 1 0.7710 4.893000 12.595000 -5.863000 # Fe_s
334 1 1 0.7710 4.893000 17.632999 -5.863000 # Fe_s
335 1 1 0.7710 4.893000 22.671000 -5.863000 # Fe_s
336 1 1 0.7710 4.893000 27.709000 -5.863000 # Fe_s
337 1 1 0.7710 4.893000 32.747002 -5.863000 # Fe_s
338 1 1 0.7710 4.893000 37.785000 -5.863000 # Fe_s
339 1 1 0.7710 4.893000 42.823002 -5.863000 # Fe_s
340 1 1 0.7710 4.893000 47.861000 -5.863000 # Fe_s
341 1 1 0.7710 8.879000 2.519000 -5.863000 # Fe_s
342 1 1 0.7710 8.879000 7.557000 -5.863000 # Fe_s
343 1 1 0.7710 8.879000 12.595000 -5.863000 # Fe_s
344 1 1 0.7710 8.879000 17.632999 -5.863000 # Fe_s
345 1 1 0.7710 8.879000 22.671000 -5.863000 # Fe_s
346 1 1 0.7710 8.879000 27.709000 -5.863000 # Fe_s
347 1 1 0.7710 8.879000 32.747002 -5.863000 # Fe_s
348 1 1 0.7710 8.879000 37.785000 -5.863000 # Fe_s
349 1 1 0.7710 8.879000 42.823002 -5.863000 # Fe_s
350 1 1 0.7710 8.879000 47.861000 -5.863000 # Fe_s
351 1 1 0.7710 11.779000 2.519000 -5.863000 # Fe_s
352 1 1 0.7710 11.779000 7.557000 -5.863000 # Fe_s
353 1 1 0.7710 11.779000 12.595000 -5.863000 # Fe_s
354 1 1 0.7710 11.779000 17.632999 -5.863000 # Fe_s
355 1 1 0.7710 11.779000 22.671000 -5.863000 # Fe_s
356 1 1 0.7710 11.779000 27.709000 -5.863000 # Fe_s
357 1 1 0.7710 11.779000 32.747002 -5.863000 # Fe_s
358 1 1 0.7710 11.779000 37.785000 -5.863000 # Fe_s
359 1 1 0.7710 11.779000 42.823002 -5.863000 # Fe_s
360 1 1 0.7710 11.779000 47.861000 -5.863000 # Fe_s
361 1 1 0.7710 15.765000 2.519000 -5.863000 # Fe_s
362 1 1 0.7710 15.765000 7.557000 -5.863000 # Fe_s
363 1 1 0.7710 15.765000 12.595000 -5.863000 # Fe_s
364 1 1 0.7710 15.765000 17.632999 -5.863000 # Fe_s
365 1 1 0.7710 15.765000 22.671000 -5.863000 # Fe_s
366 1 1 0.7710 15.765000 27.709000 -5.863000 # Fe_s
367 1 1 0.7710 15.765000 32.747002 -5.863000 # Fe_s
368 1 1 0.7710 15.765000 37.785000 -5.863000 # Fe_s
369 1 1 0.7710 15.765000 42.823002 -5.863000 # Fe_s
370 1 1 0.7710 15.765000 47.861000 -5.863000 # Fe_s
371 1 1 0.7710 18.665001 2.519000 -5.863000 # Fe_s
372 1 1 0.7710 18.665001 7.557000 -5.863000 # Fe_s
373 1 1 0.7710 18.665001 12.595000 -5.863000 # Fe_s
374 1 1 0.7710 18.665001 17.632999 -5.863000 # Fe_s
375 1 1 0.7710 18.665001 22.671000 -5.863000 # Fe_s
376 1 1 0.7710 18.665001 27.709000 -5.863000 # Fe_s
377 1 1 0.7710 18.665001 32.747002 -5.863000 # Fe_s
378 1 1 0.7710 18.665001 37.785000 -5.863000 # Fe_s
379 1 1 0.7710 18.665001 42.823002 -5.863000 # Fe_s
380 1 1 0.7710 18.665001 47.861000 -5.863000 # Fe_s
381 1 1 0.7710 22.650999 2.519000 -5.863000 # Fe_s
382 1 1 0.7710 22.650999 7.557000 -5.863000 # Fe_s
383 1 1 0.7710 22.650999 12.595000 -5.863000 # Fe_s
384 1 1 0.7710 22.650999 17.632999 -5.863000 # Fe_s
385 1 1 0.7710 22.650999 22.671000 -5.863000 # Fe_s
386 1 1 0.7710 22.650999 27.709000 -5.863000 # Fe_s
387 1 1 0.7710 22.650999 32.747002 -5.863000 # Fe_s
388 1 1 0.7710 22.650999 37.785000 -5.863000 # Fe_s
389 1 1 0.7710 22.650999 42.823002 -5.863000 # Fe_s
390 1 1 0.7710 22.650999 47.861000 -5.863000 # Fe_s
391 1 1 0.7710 25.551001 2.519000 -5.863000 # Fe_s
392 1 1 0.7710 25.551001 7.557000 -5.863000 # Fe_s
393 1 1 0.7710 25.551001 12.595000 -5.863000 # Fe_s
394 1 1 0.7710 25.551001 17.632999 -5.863000 # Fe_s
395 1 1 0.7710 25.551001 22.671000 -5.863000 # Fe_s
396 1 1 0.7710 25.551001 27.709000 -5.863000 # Fe_s
397 1 1 0.7710 25.551001 32.747002 -5.863000 # Fe_s
398 1 1 0.7710 25.551001 37.785000 -5.863000 # Fe_s
399 1 1 0.7710 25.551001 42.823002 -5.863000 # Fe_s
400 1 1 0.7710 25.551001 47.861000 -5.863000 # Fe_s
401 1 1 0.7710 29.537001 2.519000 -5.863000 # Fe_s
402 1 1 0.7710 29.537001 7.557000 -5.863000 # Fe_s
403 1 1 0.7710 29.537001 12.595000 -5.863000 # Fe_s
404 1 1 0.7710 29.537001 17.632999 -5.863000 # Fe_s
405 1 1 0.7710 29.537001 22.671000 -5.863000 # Fe_s
406 1 1 0.7710 29.537001 27.709000 -5.863000 # Fe_s
407 1 1 0.7710 29.537001 32.747002 -5.863000 # Fe_s
408 1 1 0.7710 29.537001 37.785000 -5.863000 # Fe_s
409 1 1 0.7710 29.537001 42.823002 -5.863000 # Fe_s
410 1 1 0.7710 29.537001 47.861000 -5.863000 # Fe_s
411 1 1 0.7710 32.437000 2.519000 -5.863000 # Fe_s
412 1 1 0.7710 32.437000 7.557000 -5.863000 # Fe_s
413 1 1 0.7710 32.437000 12.595000 -5.863000 # Fe_s
414 1 1 0.7710 32.437000 17.632999 -5.863000 # Fe_s
415 1 1 0.7710 32.437000 22.671000 -5.863000 # Fe_s
416 1 1 0.7710 32.437000 27.709000 -5.863000 # Fe_s
417 1 1 0.7710 32.437000 32.747002 -5.863000 # Fe_s
418 1 1 0.7710 32.437000 37.785000 -5.863000 # Fe_s
419 1 1 0.7710 32.437000 42.823002 -5.863000 # Fe_s
420 1 1 0.7710 32.437000 47.861000 -5.863000 # Fe_s
421 1 1 0.7710 36.423000 2.519000 -5.863000 # Fe_s
422 1 1 0.7710 36.423000 7.557000 -5.863000 # Fe_s
423 1 1 0.7710 36.423000 12.595000 -5.863000 # Fe_s
424 1 1 0.7710 36.423000 17.632999 -5.863000 # Fe_s
425 1 1 0.7710 36.423000 22.671000 -5.863000 # Fe_s
426 1 1 0.7710 36.423000 27.709000 -5.863000 # Fe_s
427 1 1 0.7710 36.423000 32.747002 -5.863000 # Fe_s
428 1 1 0.7710 36.423000 37.785000 -5.863000 # Fe_s
429 1 1 0.7710 36.423000 42.823002 -5.863000 # Fe_s
430 1 1 0.7710 36.423000 47.861000 -5.863000 # Fe_s
431 1 1 0.7710 39.323002 2.519000 -5.863000 # Fe_s
432 1 1 0.7710 39.323002 7.557000 -5.863000 # Fe_s
433 1 1 0.7710 39.323002 12.595000 -5.863000 # Fe_s
434 1 1 0.7710 39.323002 17.632999 -5.863000 # Fe_s
435 1 1 0.7710 39.323002 22.671000 -5.863000 # Fe_s
436 1 1 0.7710 39.323002 27.709000 -5.863000 # Fe_s
437 1 1 0.7710 39.323002 32.747002 -5.863000 # Fe_s
438 1 1 0.7710 39.323002 37.785000 -5.863000 # Fe_s
439 1 1 0.7710 39.323002 42.823002 -5.863000 # Fe_s
440 1 1 0.7710 39.323002 47.861000 -5.863000 # Fe_s
441 1 1 0.7710 43.308998 2.519000 -5.863000 # Fe_s
442 1 1 0.7710 43.308998 7.557000 -5.863000 # Fe_s
443 1 1 0.7710 43.308998 12.595000 -5.863000 # Fe_s
444 1 1 0.7710 43.308998 17.632999 -5.863000 # Fe_s
445 1 1 0.7710 43.308998 22.671000 -5.863000 # Fe_s
446 1 1 0.7710 43.308998 27.709000 -5.863000 # Fe_s
447 1 1 0.7710 43.308998 32.747002 -5.863000 # Fe_s
448 1 1 0.7710 43.308998 37.785000 -5.863000 # Fe_s
449 1 1 0.7710 43.308998 42.823002 -5.863000 # Fe_s
450 1 1 0.7710 43.308998 47.861000 -5.863000 # Fe_s
451 1 1 0.7710 46.209000 2.519000 -5.863000 # Fe_s
452 1 1 0.7710 46.209000 7.557000 -5.863000 # Fe_s
453 1 1 0.7710 46.209000 12.595000 -5.863000 # Fe_s
454 1 1 0.7710 46.209000 17.632999 -5.863000 # Fe_s
455 1 1 0.7710 46.209000 22.671000 -5.863000 # Fe_s
456 1 1 0.7710 46.209000 27.709000 -5.863000 # Fe_s
457 1 1 0.7710 46.209000 32.747002 -5.863000 # Fe_s
458 1 1 0.7710 46.209000 37.785000 -5.863000 # Fe_s
459 1 1 0.7710 46.209000 42.823002 -5.863000 # Fe_s
460 1 1 0.7710 46.209000 47.861000 -5.863000 # Fe_s
461 1 1 0.7710 50.195000 2.519000 -5.863000 # Fe_s
462 1 1 0.7710 50.195000 7.557000 -5.863000 # Fe_s
463 1 1 0.7710 50.195000 12.595000 -5.863000 # Fe_s
464 1 1 0.7710 50.195000 17.632999 -5.863000 # Fe_s
465 1 1 0.7710 50.195000 22.671000 -5.863000 # Fe_s
466 1 1 0.7710 50.195000 27.709000 -5.863000 # Fe_s
467 1 1 0.7710 50.195000 32.747002 -5.863000 # Fe_s
468 1 1 0.7710 50.195000 37.785000 -5.863000 # Fe_s
469 1 1 0.7710 50.195000 42.823002 -5.863000 # Fe_s
470 1 1 0.7710 50.195000 47.861000 -5.863000 # Fe_s
471 1 1 0.7710 53.095001 2.519000 -5.863000 # Fe_s
472 1 1 0.7710 53.095001 7.557000 -5.863000 # Fe_s
473 1 1 0.7710 53.095001 12.595000 -5.863000 # Fe_s
474 1 1 0.7710 53.095001 17.632999 -5.863000 # Fe_s
475 1 1 0.7710 53.095001 22.671000 -5.863000 # Fe_s
476 1 1 0.7710 53.095001 27.709000 -5.863000 # Fe_s
477 1 1 0.7710 53.095001 32.747002 -5.863000 # Fe_s
478 1 1 0.7710 53.095001 37.785000 -5.863000 # Fe_s
479 1 1 0.7710 53.095001 42.823002 -5.863000 # Fe_s
480 1 1 0.7710 53.095001 47.861000 -5.863000 # Fe_s
481 1 1 0.7710 2.598000 0.000000 -4.409000 # Fe_s
482 1 1 0.7710 2.598000 5.038000 -4.409000 # Fe_s
483 1 1 0.7710 2.598000 10.076000 -4.409000 # Fe_s
484 1 1 0.7710 2.598000 15.114000 -4.409000 # Fe_s
485 1 1 0.7710 2.598000 20.152000 -4.409000 # Fe_s
486 1 1 0.7710 2.598000 25.190001 -4.409000 # Fe_s
487 1 1 0.7710 2.598000 30.228001 -4.409000 # Fe_s
488 1 1 0.7710 2.598000 35.265999 -4.409000 # Fe_s
489 1 1 0.7710 2.598000 40.304001 -4.409000 # Fe_s
490 1 1 0.7710 2.598000 45.341999 -4.409000 # Fe_s
491 1 1 0.7710 6.583000 0.000000 -4.409000 # Fe_s
492 1 1 0.7710 6.583000 5.038000 -4.409000 # Fe_s
493 1 1 0.7710 6.583000 10.076000 -4.409000 # Fe_s
494 1 1 0.7710 6.583000 15.114000 -4.409000 # Fe_s
495 1 1 0.7710 6.583000 20.152000 -4.409000 # Fe_s
496 1 1 0.7710 6.583000 25.190001 -4.409000 # Fe_s
497 1 1 0.7710 6.583000 30.228001 -4.409000 # Fe_s
498 1 1 0.7710 6.583000 35.265999 -4.409000 # Fe_s
499 1 1 0.7710 6.583000 40.304001 -4.409000 # Fe_s
500 1 1 0.7710 6.583000 45.341999 -4.409000 # Fe_s
501 1 1 0.7710 9.484000 0.000000 -4.409000 # Fe_s
502 1 1 0.7710 9.484000 5.038000 -4.409000 # Fe_s
503 1 1 0.7710 9.484000 10.076000 -4.409000 # Fe_s
504 1 1 0.7710 9.484000 15.114000 -4.409000 # Fe_s
505 1 1 0.7710 9.484000 20.152000 -4.409000 # Fe_s
506 1 1 0.7710 9.484000 25.190001 -4.409000 # Fe_s
507 1 1 0.7710 9.484000 30.228001 -4.409000 # Fe_s
508 1 1 0.7710 9.484000 35.265999 -4.409000 # Fe_s
509 1 1 0.7710 9.484000 40.304001 -4.409000 # Fe_s
510 1 1 0.7710 9.484000 45.341999 -4.409000 # Fe_s
511 1 1 0.7710 13.469000 0.000000 -4.409000 # Fe_s
512 1 1 0.7710 13.469000 5.038000 -4.409000 # Fe_s
513 1 1 0.7710 13.469000 10.076000 -4.409000 # Fe_s
514 1 1 0.7710 13.469000 15.114000 -4.409000 # Fe_s
515 1 1 0.7710 13.469000 20.152000 -4.409000 # Fe_s
516 1 1 0.7710 13.469000 25.190001 -4.409000 # Fe_s
517 1 1 0.7710 13.469000 30.228001 -4.409000 # Fe_s
518 1 1 0.7710 13.469000 35.265999 -4.409000 # Fe_s
519 1 1 0.7710 13.469000 40.304001 -4.409000 # Fe_s
520 1 1 0.7710 13.469000 45.341999 -4.409000 # Fe_s
521 1 1 0.7710 16.370001 0.000000 -4.409000 # Fe_s
522 1 1 0.7710 16.370001 5.038000 -4.409000 # Fe_s
523 1 1 0.7710 16.370001 10.076000 -4.409000 # Fe_s
524 1 1 0.7710 16.370001 15.114000 -4.409000 # Fe_s
525 1 1 0.7710 16.370001 20.152000 -4.409000 # Fe_s
526 1 1 0.7710 16.370001 25.190001 -4.409000 # Fe_s
527 1 1 0.7710 16.370001 30.228001 -4.409000 # Fe_s
528 1 1 0.7710 16.370001 35.265999 -4.409000 # Fe_s
529 1 1 0.7710 16.370001 40.304001 -4.409000 # Fe_s
530 1 1 0.7710 16.370001 45.341999 -4.409000 # Fe_s
531 1 1 0.7710 20.355000 0.000000 -4.409000 # Fe_s
532 1 1 0.7710 20.355000 5.038000 -4.409000 # Fe_s
533 1 1 0.7710 20.355000 10.076000 -4.409000 # Fe_s
534 1 1 0.7710 20.355000 15.114000 -4.409000 # Fe_s
535 1 1 0.7710 20.355000 20.152000 -4.409000 # Fe_s
536 1 1 0.7710 20.355000 25.190001 -4.409000 # Fe_s
537 1 1 0.7710 20.355000 30.228001 -4.409000 # Fe_s
538 1 1 0.7710 20.355000 35.265999 -4.409000 # Fe_s
539 1 1 0.7710 20.355000 40.304001 -4.409000 # Fe_s
540 1 1 0.7710 20.355000 45.341999 -4.409000 # Fe_s
541 1 1 0.7710 23.256001 0.000000 -4.409000 # Fe_s
542 1 1 0.7710 23.256001 5.038000 -4.409000 # Fe_s
543 1 1 0.7710 23.256001 10.076000 -4.409000 # Fe_s
544 1 1 0.7710 23.256001 15.114000 -4.409000 # Fe_s
545 1 1 0.7710 23.256001 20.152000 -4.409000 # Fe_s
546 1 1 0.7710 23.256001 25.190001 -4.409000 # Fe_s
547 1 1 0.7710 23.256001 30.228001 -4.409000 # Fe_s
548 1 1 0.7710 23.256001 35.265999 -4.409000 # Fe_s
549 1 1 0.7710 23.256001 40.304001 -4.409000 # Fe_s
550 1 1 0.7710 23.256001 45.341999 -4.409000 # Fe_s
551 1 1 0.7710 27.240999 0.000000 -4.409000 # Fe_s
552 1 1 0.7710 27.240999 5.038000 -4.409000 # Fe_s
553 1 1 0.7710 27.240999 10.076000 -4.409000 # Fe_s
554 1 1 0.7710 27.240999 15.114000 -4.409000 # Fe_s
555 1 1 0.7710 27.240999 20.152000 -4.409000 # Fe_s
556 1 1 0.7710 27.240999 25.190001 -4.409000 # Fe_s
557 1 1 0.7710 27.240999 30.228001 -4.409000 # Fe_s
558 1 1 0.7710 27.240999 35.265999 -4.409000 # Fe_s
559 1 1 0.7710 27.240999 40.304001 -4.409000 # Fe_s
560 1 1 0.7710 27.240999 45.341999 -4.409000 # Fe_s
561 1 1 0.7710 30.142000 0.000000 -4.409000 # Fe_s
562 1 1 0.7710 30.142000 5.038000 -4.409000 # Fe_s