LAMMPS data file. CGCMM style. atom_style full generated by VMD/TopoTools v1.7 on Tue Apr 12 14:29:46 BST 2022
 5 atoms
 4 bonds
 4 angles
 2 dihedrals
 1 impropers
 4 atom types
 3 bond types
 3 angle types
 1 dihedral types
 1 improper types
 -3.483600 1.516400  xlo xhi
 -2.082500 2.917500  ylo yhi
 -2.500000 2.500000  zlo zhi

 Pair Coeffs

1 0.086 3.3  # 1  CHK 900/47
2 0.086 3.3  # 2  COK 904/110
3 0.03  2.42 # 3  HCK 899/46
4 0.21  2.96 # 4  OCK 905/4

 Bond Coeffs

1 350 1.305 # 1  CHK-COK 47-110
2 170 1.08  # 2  CHK-HCK 46-47
3 350 1.171 # 3  COK-OCK 4-110

 Angle Coeffs

1 80.0 180.0 # 1  CHK-COK-OCK 4-110-47
2 17.5 117.0 # 2  COK-CHK-HCK 46-47-46
4 17.5 117.0 # 3  HCK-CHK-HCK 46-47-46

 Dihedral Coeffs

1 0.0 0.0 0.0 0.0 # 1  HCK-CHK-COK-OCK 46-47-110-4

 Improper Coeffs

1 15.0 180.0 # 1  COK-HCK-CHK-HCK 110-46-47-46

 Masses

 1 12.011000 # CHK
 2 12.011000 # COK
 3 1.008000 # HCK
 4 15.999000 # OCK

 Atoms # full

1 1 1 -0.250000 -2.129400 0.402700 0.000000 # CHK 
2 1 2 0.200000 -0.823300 0.368300 0.000000 # COK 
3 1 4 -0.250000 0.342200 0.347800 0.000000 # OCK 
4 1 3 0.150000 -2.667900 1.346600 0.000000 # HCK 
5 1 3 0.150000 -2.716800 -0.511600 0.000000 # HCK 

 Bonds

1 1 1 2
2 2 1 4
3 2 1 5
4 3 2 3

 Angles

1 2 2 1 4
2 2 2 1 5
3 3 4 1 5
4 1 1 2 3

 Dihedrals

1 1 4 1 2 3
2 1 5 1 2 3

 Impropers

1 1 5 1 4 2

