LAMMPS data file. CGCMM style. atom_style full generated by VMD/TopoTools v1.7 on Mon Apr 11 16:48:28 BST 2022
 5 atoms
 4 bonds
 4 angles
 2 dihedrals
 1 impropers
 4 atom types
 3 bond types
 3 angle types
 1 dihedral types
 1 improper types
 -3.483600 1.516400  xlo xhi
 -2.082500 2.917500  ylo yhi
 -2.500000 2.500000  zlo zhi

# Pair Coeffs
#
# 1  CHK
# 2  COK
# 3  HCK
# 4  OCK

# Bond Coeffs
#
# 1  CHK-COK
# 2  CHK-HCK
# 3  COK-OCK

# Angle Coeffs
#
# 1  CHK-COK-OCK
# 2  COK-CHK-HCK
# 3  HCK-CHK-HCK

# Dihedral Coeffs
#
# 1  HCK-CHK-COK-OCK

# Improper Coeffs
#
# 1  COK-HCK-CHK-HCK

 Masses

 1 12.011000 # CHK
 2 12.011000 # COK
 3 1.008000 # HCK
 4 15.999000 # OCK

 Atoms # full

1 1 1 -0.250000 -2.129400 0.402700 0.000000 # CHK 
2 1 2 0.200000 -0.823300 0.368300 0.000000 # COK 
3 1 4 -0.250000 0.342200 0.347800 0.000000 # OCK 
4 1 3 0.150000 -2.667900 1.346600 0.000000 # HCK 
5 1 3 0.150000 -2.716800 -0.511600 0.000000 # HCK 

 Bonds

1 1 1 2
2 2 1 4
3 2 1 5
4 3 2 3

 Angles

1 2 2 1 4
2 2 2 1 5
3 3 4 1 5
4 1 1 2 3

 Dihedrals

1 1 4 1 2 3
2 1 5 1 2 3

 Impropers

1 1 5 1 4 2

