LAMMPS data file. CGCMM style. atom_style full generated by VMD/TopoTools v1.7 on Tue Apr 12 14:29:29 BST 2022
 5 atoms
 5 bonds
 7 angles
 8 dihedrals
 2 impropers
 3 atom types
 3 bond types
 4 angle types
 5 dihedral types
 1 improper types
 -0.748820 4.251180  xlo xhi
 -2.405085 2.594915  ylo yhi
 -2.241830 2.758170  zlo zhi

 Pair Coeffs

# 1
# 2
#

 Bond Coeffs

# 1  COO-COO 47-47
# 2  COO-HCO 46-47
# 3  COO-OCO 20-47

 Angle Coeffs

# 1  COO-COO-HCO 46-47-47
# 2  COO-COO-OCO 20-47-47
# 3  COO-OCO-COO 47-20-47 modified to smaller angle
# 4  HCO-COO-OCO 20-47-46

 Dihedral Coeffs

# 1  COO-COO-OCO-COO 47-20-47-47 13-20-47-47
# 2  HCO-COO-COO-HCO 46-47-47-46
# 3  HCO-COO-COO-OCO 20-47-47-46
# 4  HCO-COO-OCO-COO 47-20-47-46 13-20-47-36
# 5  OCO-COO-COO-OCO 20-47-47-20 0-47-47-0

 Improper Coeffs

# 1  COO-HCO-COO-OCO 47-46-47-20

 Masses

 1 12.011000 # COO
 2 1.008000 # HCO
 3 15.999000 # OCO

 Atoms # full

1 1 1 0.135000 1.007610 -0.212800 -0.182370 # COO 
2 1 1 0.135000 2.222090 0.054670 0.174420 # COO 
3 1 3 -0.400000 1.209810 0.582630 0.878710 # OCO 
4 1 2 0.115000 0.235580 -0.635570 -0.746330 # HCO 
5 1 2 0.115000 3.266780 0.031900 0.144050 # HCO 

 Bonds

1 1 1 2
2 3 1 3
3 2 1 4
4 3 2 3
5 2 2 5

 Angles

1 2 2 1 3
2 1 2 1 4
3 4 3 1 4
4 2 1 2 3
5 1 1 2 5
6 4 3 2 5
7 3 1 3 2

 Dihedrals

1 5 3 1 2 3
2 3 3 1 2 5
3 3 4 1 2 3
4 2 4 1 2 5
5 1 2 1 3 2
6 4 4 1 3 2
7 1 1 2 3 1
8 4 5 2 3 1

 Impropers

1 1 3 1 4 2
2 1 3 2 5 1

